
Running Job 1 of 1 ./input.in
qchem ./input.in_4767.0 /data/lab/qcscratch/qchem4767/ 1
/data/software/repo/qchem/5.1/exe/qcprog.exe_s ./input.in_4767.0 /data/lab/qcscratch/qchem4767/
Check license passed

                  Welcome to Q-Chem
     A Quantum Leap Into The Future Of Chemistry


 Q-Chem 5.1, Q-Chem, Inc., Pleasanton, CA (2018)

 Yihan Shao,  Zhengting Gan,  E. Epifanovsky,  A. T. B. Gilbert,  M. Wormit,  
 J. Kussmann,  A. W. Lange,  A. Behn,  Jia Deng,  Xintian Feng,  D. Ghosh,  
 M. Goldey,  P. R. Horn,  L. D. Jacobson,  I. Kaliman,  T. Kus,  A. Landau,  
 Jie Liu,  E. I. Proynov,  R. M. Richard,  R. P. Steele,  E. J. Sundstrom,  
 H. L. Woodcock III,  P. M. Zimmerman,  D. Zuev,  B. Albrecht,  E. Alguire,  
 S. A. Baeppler,  D. Barton,  Z. Benda,  Y. A. Bernard,  E. J. Berquist,  
 K. B. Bravaya,  H. Burton,  D. Casanova,  Chun-Min Chang,  Yunqing Chen,  
 A. Chien,  K. D. Closser,  M. P. Coons,  S. Coriani,  S. Dasgupta,  
 A. L. Dempwolff,  M. Diedenhofen,  Hainam Do,  R. G. Edgar,  Po-Tung Fang,  
 S. Faraji,  S. Fatehi,  Qingguo Feng,  K. D. Fenk,  J. Fosso-Tande,  
 Qinghui Ge,  A. Ghysels,  G. Gidofalvi,  J. Gomes,  J. Gonthier,  A. Gunina,  
 D. Hait,  M. W. D. Hanson-Heine,  P. H. P. Harbach,  A. W. Hauser,  
 J. E. Herr,  E. G. Hohenstein,  Z. C. Holden,  Kerwin Hui,  B. C. Huynh,  
 T.-C. Jagau,  Hyunjun Ji,  B. Kaduk,  K. Khistyaev,  Jaehoon Kim,  
 P. Klunzinger,  K. Koh,  D. Kosenkov,  L. Koulias,  T. Kowalczyk,  
 C. M. Krauter,  A. Kunitsa,  Ka Un Lao,  A. Laurent,  K. V. Lawler,  
 Joonho Lee,  D. Lefrancois,  S. Lehtola,  D. S. Levine,  Yi-Pei Li,  
 You-Sheng Lin,  Fenglai Liu,  E. Livshits,  A. Luenser,  P. Manohar,  
 E. Mansoor,  S. F. Manzer,  Shan-Ping Mao,  Yuezhi Mao,  N. Mardirossian,  
 A. V. Marenich,  T. Markovich,  L. A. Martinez-Martinez,  S. A. Maurer,  
 N. J. Mayhall,  S. C. McKenzie,  J.-M. Mewes,  A. F. Morrison,  
 J. W. Mullinax,  K. Nanda,  T. S. Nguyen-Beck,  R. Olivares-Amaya,  
 J. A. Parkhill,  T. M. Perrine,  F. Plasser,  P. Pokhilko,  S. Prager,  
 A. Prociuk,  E. Ramos,  D. R. Rehn,  F. Rob,  M. Schneider,  N. Sergueev,  
 S. M. Sharada,  S. Sharma,  D. W. Small,  T. Stauch,  T. Stein,  
 Yu-Chuan Su,  A. J. W. Thom,  A. Tkatchenko,  T. Tsuchimochi,  N. M. Tubman,  
 L. Vogt,  M. L. Vidal,  O. Vydrov,  M. A. Watson,  J. Wenzel,  
 M. de Wergifosse,  T. A. Wesolowski,  A. White,  J. Witte,  A. Yamada,  
 Jun Yang,  K. Yao,  S. Yeganeh,  S. R. Yost,  Zhi-Qiang You,  A. Zech,  
 Igor Ying Zhang,  Xing Zhang,  Yan Zhao,  Ying Zhu,  B. R. Brooks,  
 G. K. L. Chan,  C. J. Cramer,  M. S. Gordon,  W. J. Hehre,  A. Klamt,  
 M. W. Schmidt,  C. D. Sherrill,  D. G. Truhlar,  A. Aspuru-Guzik,  R. Baer,  
 A. T. Bell,  N. A. Besley,  Jeng-Da Chai,  A. E. DePrince, III,  
 R. A. DiStasio Jr.,  A. Dreuw,  B. D. Dunietz,  T. R. Furlani,  
 Chao-Ping Hsu,  Yousung Jung,  Jing Kong,  D. S. Lambrecht,  WanZhen Liang,  
 C. Ochsenfeld,  V. A. Rassolov,  L. V. Slipchenko,  J. E. Subotnik,  
 T. Van Voorhis,  J. M. Herbert,  A. I. Krylov,  P. M. W. Gill,  M. Head-Gordon

 Contributors to earlier versions of Q-Chem not listed above: 
 R. D. Adamson,  B. Austin,  J. Baker,  G. J. O. Beran,  K. Brandhorst,  
 S. T. Brown,  E. F. C. Byrd,  A. K. Chakraborty,  C.-L. Cheng,  
 Siu Hung Chien,  D. M. Chipman,  D. L. Crittenden,  H. Dachsel,  
 R. J. Doerksen,  A. D. Dutoi,  L. Fusti-Molnar,  W. A. Goddard III,  
 A. Golubeva-Zadorozhnaya,  S. R. Gwaltney,  G. Hawkins,  A. Heyden,  
 S. Hirata,  G. Kedziora,  F. J. Keil,  C. Kelley,  Jihan Kim,  R. A. King,  
 R. Z. Khaliullin,  P. P. Korambath,  W. Kurlancheek,  A. M. Lee,  M. S. Lee,  
 S. V. Levchenko,  Ching Yeh Lin,  D. Liotard,  R. C. Lochan,  I. Lotan,  
 P. E. Maslen,  N. Nair,  D. P. O'Neill,  D. Neuhauser,  E. Neuscamman,  
 C. M. Oana,  R. Olson,  B. Peters,  R. Peverati,  P. A. Pieniazek,  
 Y. M. Rhee,  J. Ritchie,  M. A. Rohrdanz,  E. Rosta,  N. J. Russ,  
 H. F. Schaefer III,  N. E. Schultz,  N. Shenvi,  A. C. Simmonett,  A. Sodt,  
 D. Stuck,  K. S. Thanthiriwatte,  V. Vanovschi,  Tao Wang,  A. Warshel,  
 C. F. Williams,  Q. Wu,  X. Xu,  W. Zhang

 Please cite Q-Chem as follows:
 Y. Shao et al., Mol. Phys. 113, 184-215 (2015)
 DOI: 10.1080/00268976.2014.952696

 Q-Chem 5.1.1 for Intel X86 EM64T Linux

 Parts of Q-Chem use Armadillo 8.300.2 (Tropical Shenanigans).
 http://arma.sourceforge.net/

 Q-Chem begins on Wed Nov 21 16:49:40 2018  

Host: 
0

     Scratch files written to /data/lab/qcscratch/qchem4767//
 Aug318 |scratch|qcdevops|jenkins|workspace|build_RNUM 5954   
Processing $rem in /data/software/repo/qchem/5.1/config/preferences.
 MEM_TOTAL  20480 
Input Ideriv = 2
Curr. Ideriv = -1
Max.  Ideriv = 2

Checking the input file for inconsistencies... 	...done.

--------------------------------------------------------------
User input:
--------------------------------------------------------------


$molecule
0  1
O 0.0 0.0 0.0
H -0.9093 0.1367 0.0201
H 0.3717 0.233 -0.8842
$end

$rem
jobtype         sp                ! single-point
method          CAM-QTP00         ! Functional
basis           aug-cc-pvdz       ! or def2-TZVPPD for Case 2
!NBO             1
unrestricted    false             ! true or false based on open-shell or closed-shell
max_scf_cycles  300
scf_convergence 8                 ! this can be reduced to 6 for quick calculations (default is 5)
thresh          14                ! Threshold for computing integrals: this can be reduced to 11 for quick calculations (default is 8)
symmetry        false             !* turn off exploitation of symmetry in integral computing
sym_ignore      true              !* ignore point-group symmetry (may result in reorientation and small shifts of the input geom)
incdft          0                 !* turn off incremental DFT
incfock         0                 !* turn off incremental Fock
PRINT_ORBITALS  true
!MOLDEN_FORMAT   true
!IANLTY          200
!MAKE_CUBE_FILES TRUE
!CUBEFILE_STATE  0
!SCF_FINAL_PRINT 3
$end


!$plots
!this is a comment
!300 -10.0 10.0
!300 -10.0 10.0
!300 -10.0 10.0
!10 0 0 0
!1 2 3 4 5 6 7 8 9 10
!$end



--------------------------------------------------------------
 ----------------------------------------------------------------
             Standard Nuclear Orientation (Angstroms)
    I     Atom           X                Y                Z
 ----------------------------------------------------------------
    1      O       0.0000000000     0.0000000000     0.0000000000
    2      H      -0.9093000000     0.1367000000     0.0201000000
    3      H       0.3717000000     0.2330000000    -0.8842000000
 ----------------------------------------------------------------
 Nuclear Repulsion Energy =     9.2286753710 hartrees
 There are        5 alpha and        5 beta electrons
 Requested basis set is aug-cc-pVDZ
 There are 19 shells and 41 basis functions

 Total QAlloc Memory Limit  20480 MB
 Mega-Array Size       188 MB
 MEM_STATIC part       192 MB

                       Distance Matrix (Angstroms)
             O (  1)   H (  2)
   H (  2)  0.919738
   H (  3)  0.987046  1.570985
 
 A cutoff of  1.0D-14 yielded    190 shell pairs
 There are       902 function pairs (       997 Cartesian)
 
 -------------------------------------------------------
 OpenMP Integral Computing Module                       
 Release: version 1.0, May 2013, Q-Chem Inc. Pittsburgh 
 -------------------------------------------------------
 Integral Job Info:
 Integral job number is                      11
 Integral operator is                         1
 short-range coefficients              54000000
 long-range coefficients               91000000
 Omega coefficients                         290
 if combine SR and LR in K                    1
 Integral screening is                        0
 Integral computing path is                   2
 max size of driver memory is            800000
 size of driver memory is                593474
 size of scratch memory is              5020200
 max col of scratch BK array               1296
 max len of scratch array in speh3          155
 max len of scratch index in speh4           18
 max int batch size is                      520
 min int batch size is                       52
 fixed nKL is                                52
 max L of basis functions is                  2
 order of int derivative is                   0
 number of shells is                         19
 number of basis is                          43
 number of cartesian basis is                43
 number of contracted shell pairs           190
 number of primitive shell pairs            826
 maxK2 (contraction) of shell pair           64
 max number of K2 of shell pair               1
 max number of CS2 of shell pair             36
 max number of PS2 of shell pair            192
 mem total for path MDJ                  509160
 -------------------------------------------------------
 Smallest overlap matrix eigenvalue = 2.72E-03

 Scale SEOQF with 1.000000e-01/1.000000e-01/1.000000e-01

 Standard Electronic Orientation quadrupole field applied
 Guess from superposition of atomic densities
 Warning:  Energy on first SCF cycle will be non-variational
 SAD guess density has 10.000000 electrons

 -----------------------------------------------------------------------
  General SCF calculation program by
  Eric Jon Sundstrom, Paul Horn, Yuezhi Mao, Dmitri Zuev, Alec White,
  David Stuck, Shaama M.S., Shane Yost, Joonho Lee, David Small,
  Daniel Levine, Susi Lehtola, Hugh Burton, Evgeny Epifanovsky
 -----------------------------------------------------------------------
 Exchange:     0.5400 Hartree-Fock + 0.0900 B88 + 0.3700 muB88 + LR-HF
 Correlation:  0.2000 VWN5 + 0.8000 LYP
 Using SG-1 standard quadrature grid
 using 2 threads for integral computing
 -------------------------------------------------------
 OpenMP Integral computing Module                
 Release: version 1.0, May 2013, Q-Chem Inc. Pittsburgh 
 -------------------------------------------------------
 using 2 threads for integral computing
 -------------------------------------------------------
 OpenMP Integral computing Module                
 Release: version 1.0, May 2013, Q-Chem Inc. Pittsburgh 
 -------------------------------------------------------
 -------------------------------------------------------
 OpenMP BLAS3 based DFT computing Module                
 Release: version 1.0, May 2013, Q-Chem Inc. Pittsburgh 
 -------------------------------------------------------
 A restricted SCF calculation will be
 performed using DIIS
 SCF converges when DIIS error is below 1.0e-08
 ---------------------------------------
  Cycle       Energy         DIIS error
 ---------------------------------------
    1     -76.3135163878      8.08e-02  
    2     -76.3657218371      1.69e-02  
    3     -76.3834014877      1.42e-02  
    4     -76.4128026062      6.36e-04  
    5     -76.4128821552      1.46e-04  
    6     -76.4128883913      2.10e-05  
    7     -76.4128885626      1.96e-06  
    8     -76.4128885649      3.42e-07  
    9     -76.4128885649      7.55e-08  
   10     -76.4128885649      1.61e-08  
   11     -76.4128885649      1.89e-09  Convergence criterion met
 ---------------------------------------
 SCF time:   CPU 3.99s  wall 3.00s 
 SCF   energy in the final basis set =      -76.4128885649
 Total energy in the final basis set =      -76.4128885649
 
 --------------------------------------------------------------
 
                    Orbital Energies (a.u.)
 --------------------------------------------------------------
 
 Alpha MOs
 -- Occupied --
-19.837  -1.238  -0.698  -0.534  -0.468
 -- Virtual --
  0.019   0.049   0.149   0.170   0.186   0.204   0.250   0.283
  0.340   0.374   0.401   0.495   0.587   0.609   0.750   0.834
  1.013   1.022   1.068   1.241   1.359   1.362   1.465   1.880
  1.919   1.986   2.294   2.323   2.491   2.603   2.768   3.487
  3.501   3.527   3.880   4.115
 --------------------------------------------------------------
 

                        RESTRICTED (RHF) MOLECULAR ORBITAL COEFFICIENTS
                         1         2         3         4         5         6
 eigenvalues:        -19.837    -1.238    -0.698    -0.534    -0.468     0.019
   1  O     s       -1.00318   0.00579  -0.00004   0.00052   0.00000  -0.00064
   2  O     s       -0.00671  -0.44856  -0.01623  -0.14890   0.00000   0.07953
   3  O     s        0.01287  -0.35805  -0.04547  -0.30845   0.00000   0.24153
   4  O     px       0.00106   0.06126  -0.43225  -0.29240   0.09357  -0.03209
   5  O     py      -0.00056  -0.02994  -0.02002   0.19126   0.59363   0.02867
   6  O     pz       0.00121   0.06149   0.26731  -0.44019   0.19577  -0.07160
   7  O     px      -0.00095  -0.01725  -0.12650  -0.16610   0.06389  -0.05730
   8  O     py       0.00071   0.00382  -0.00700   0.11029   0.40531   0.04256
   9  O     pz      -0.00171  -0.00334   0.08168  -0.25504   0.13366  -0.10166
  10  O     d 1      0.00004   0.00187  -0.00696  -0.00497  -0.00716  -0.00112
  11  O     d 2      0.00005   0.00310   0.00572  -0.00742  -0.00809  -0.00114
  12  O     d 3      0.00004  -0.00087  -0.01973   0.00583  -0.00545   0.00055
  13  O     d 4      0.00015   0.00224   0.00851   0.00872  -0.00409   0.00227
  14  O     d 5     -0.00027  -0.00763   0.01357   0.00502  -0.00562   0.00089
  15  O     s        0.00803  -0.05939  -0.01219  -0.09556   0.00002   1.18462
  16  O     px      -0.00064   0.00494  -0.01126  -0.02437   0.01155  -0.05352
  17  O     py       0.00037  -0.00402  -0.00051   0.01601   0.07327   0.04646
  18  O     pz      -0.00082   0.00982   0.00694  -0.03691   0.02416  -0.11533
  19  O     d 1      0.00002  -0.00369   0.01000  -0.00460  -0.00741   0.00033
  20  O     d 2     -0.00012  -0.00598  -0.00887  -0.00388  -0.01143  -0.00160
  21  O     d 3      0.00010   0.00012   0.02961   0.00482  -0.00761   0.00185
  22  O     d 4     -0.00042  -0.00875  -0.01173   0.02140  -0.00484  -0.00433
  23  O     d 5      0.00034   0.01957  -0.02011  -0.00881  -0.00701   0.00324
  24  H 1   s       -0.00023  -0.23437   0.37072   0.18983  -0.00000  -0.02500
  25  H 1   s       -0.00682   0.01426   0.11588   0.05818  -0.00001  -0.40672
  26  H 1   px       0.00085  -0.04436   0.03699   0.01791   0.00425   0.00818
  27  H 1   py      -0.00012   0.00552  -0.00890   0.00331   0.02695  -0.00051
  28  H 1   pz      -0.00003   0.00448   0.00931  -0.01861   0.00889  -0.00235
  29  H 1   s       -0.00061   0.00124  -0.00044   0.00623  -0.00000  -0.67469
  30  H 1   px      -0.00280   0.00331   0.01832  -0.00744   0.00357  -0.06582
  31  H 1   py       0.00048  -0.00128  -0.00139   0.00592   0.02267   0.01232
  32  H 1   pz      -0.00011   0.00230  -0.00454  -0.01439   0.00747  -0.00590
  33  H 2   s       -0.00070  -0.18626  -0.35098   0.20760   0.00000  -0.03511
  34  H 2   s       -0.00599   0.02985  -0.11378   0.07231  -0.00001  -0.39612
  35  H 2   px      -0.00018   0.01856   0.00632  -0.02366   0.00380  -0.00475
  36  H 2   py      -0.00011   0.00839   0.01202  -0.00089   0.02410  -0.00219
  37  H 2   pz       0.00042  -0.03431  -0.03947   0.01402   0.00795   0.00893
  38  H 2   s       -0.00050   0.00256   0.00212   0.00459  -0.00000  -0.81714
  39  H 2   px       0.00076  -0.00195   0.01043  -0.01181   0.00340   0.01254
  40  H 2   py       0.00068  -0.00302   0.00355   0.00566   0.02158   0.01470
  41  H 2   pz      -0.00243   0.01009  -0.01576  -0.01153   0.00712  -0.05058
                         7         8         9        10
 eigenvalues:          0.049     0.149     0.170     0.186
   1  O     s       -0.00069  -0.02970  -0.00001   0.02044
   2  O     s        0.00102  -0.09720  -0.00003   0.18435
   3  O     s        0.02092   0.30599   0.00004   0.11246
   4  O     px      -0.07371   0.09858   0.02968   0.03174
   5  O     py      -0.00568  -0.07122   0.18815   0.01451
   6  O     pz       0.05245   0.16875   0.06209  -0.05913
   7  O     px      -0.12419   0.00125   0.03642   0.09864
   8  O     py      -0.00804  -0.01191   0.23092  -0.04417
   9  O     pz       0.08373   0.03537   0.07616   0.08680
  10  O     d 1     -0.00057   0.00390  -0.00855   0.00236
  11  O     d 2      0.00023   0.00533  -0.00883   0.00415
  12  O     d 3     -0.00136  -0.00416  -0.00597  -0.00281
  13  O     d 4      0.00029  -0.00807  -0.00473  -0.00114
  14  O     d 5      0.00150  -0.00274  -0.00639  -0.00544
  15  O     s        0.13169   3.98795   0.00051  -2.09129
  16  O     px      -0.62951  -0.96982  -0.20883  -0.57346
  17  O     py      -0.04188   0.58226  -1.32391   0.22329
  18  O     pz       0.42788  -1.30132  -0.43677  -0.40322
  19  O     d 1     -0.00326  -0.01386   0.02684  -0.01157
  20  O     d 2      0.00389  -0.02788   0.02723  -0.00612
  21  O     d 3     -0.01114   0.01997   0.01843   0.00217
  22  O     d 4      0.00433  -0.00054   0.01473   0.04192
  23  O     d 5      0.00621   0.03881   0.01986  -0.00907
  24  H 1   s        0.00301  -0.00948   0.00001  -0.06021
  25  H 1   s       -0.55866  -1.70077  -0.00012   0.05383
  26  H 1   px       0.00338  -0.04068  -0.00124   0.01283
  27  H 1   py      -0.00162   0.00513  -0.00781   0.00042
  28  H 1   pz       0.00330   0.00390  -0.00257  -0.00741
  29  H 1   s       -2.79398  -0.70638  -0.00014   0.29560
  30  H 1   px      -0.11434  -0.36337   0.04162   0.44273
  31  H 1   py       0.03191   0.02078   0.26449  -0.08801
  32  H 1   pz      -0.04211   0.11051   0.08724   0.05531
  33  H 2   s        0.00229   0.02170   0.00001  -0.09783
  34  H 2   s        0.47768  -1.46366  -0.00016   0.15035
  35  H 2   px      -0.00114   0.01549  -0.00151  -0.01416
  36  H 2   py       0.00176   0.00932  -0.00961  -0.00369
  37  H 2   pz      -0.00480  -0.03568  -0.00318   0.01795
  38  H 2   s        2.70120  -0.70924  -0.00011   0.96970
  39  H 2   px       0.00107   0.21447   0.03439  -0.13672
  40  H 2   py      -0.03465   0.07343   0.21771  -0.17135
  41  H 2   pz       0.10455  -0.32527   0.07170   0.58501
 
          Ground-State Mulliken Net Atomic Charges

     Atom                 Charge (a.u.)
  ----------------------------------------
      1 O                    -0.230307
      2 H                     0.076969
      3 H                     0.153338
  ----------------------------------------
  Sum of atomic charges =     0.000000

 -----------------------------------------------------------------
                    Cartesian Multipole Moments
 -----------------------------------------------------------------
    Charge (ESU x 10^10)
                 0.0000
    Dipole Moment (Debye)
         X      -0.9381      Y       0.6312      Z      -1.4656
       Tot       1.8511
    Quadrupole Moments (Debye-Ang)
        XX      -4.8864     XY      -0.0955     YY      -7.4906
        XZ      -1.0463     YZ      -0.5332     ZZ      -5.5644
    Octopole Moments (Debye-Ang^2)
       XXX      -0.7665    XXY       0.1229    XYY       0.2614
       YYY      -0.5625    XXZ       0.2356    XYZ      -0.1787
       YYZ       0.3775    XZZ       0.9121    YZZ       0.1996
       ZZZ      -0.0802
    Hexadecapole Moments (Debye-Ang^3)
      XXXX      -6.1600   XXXY      -0.1973   XXYY      -2.5251
      XYYY       0.0189   YYYY      -7.4249   XXXZ      -0.1363
      XXYZ      -0.0241   XYYZ      -0.0001   YYYZ       0.1291
      XXZZ      -2.3831   XYZZ       0.1807   YYZZ      -2.5349
      XZZZ      -0.5700   YZZZ      -0.2464   ZZZZ      -6.8465
 -----------------------------------------------------------------
Archival summary:
1\1\asimov.pl.ucsd.edu\SP\ProcedureUnspecified\BasisUnspecified\12\ckegan\WedNov2116:49:472018WedNov2116:49:472018\0\\#,ProcedureUnspecified,BasisUnspecified,\\0,1\O\H,1,0.919738\H,1,0.987046,2,110.904\\\@

 Total job time:  7.15s(wall), 5.03s(cpu) 
 Wed Nov 21 16:49:47 2018

        *************************************************************
        *                                                           *
        *  Thank you very much for using Q-Chem.  Have a nice day.  *
        *                                                           *
        *************************************************************


