
Running Job 1 of 2 input.in
qchem input.in_31831.0 /data/lab/qcscratch/scratch_6acfacb61499/ 0
/data/software/repo/qchem/5.2/exe/qcprog.exe_s input.in_31831.0 /data/lab/qcscratch/scratch_6acfacb61499/
                  Welcome to Q-Chem
     A Quantum Leap Into The Future Of Chemistry


 Q-Chem 5.2, Q-Chem, Inc., Pleasanton, CA (2019)

 Yihan Shao,  Zhengting Gan,  E. Epifanovsky,  A. T. B. Gilbert,  M. Wormit,  
 J. Kussmann,  A. W. Lange,  A. Behn,  Jia Deng,  Xintian Feng,  D. Ghosh,  
 M. Goldey,  P. R. Horn,  L. D. Jacobson,  I. Kaliman,  T. Kus,  A. Landau,  
 Jie Liu,  E. I. Proynov,  R. M. Richard,  R. P. Steele,  E. J. Sundstrom,  
 H. L. Woodcock III,  P. M. Zimmerman,  D. Zuev,  B. Albrecht,  E. Alguire,  
 S. A. Baeppler,  D. Barton,  Z. Benda,  Y. A. Bernard,  E. J. Berquist,  
 K. B. Bravaya,  H. Burton,  D. Casanova,  Chun-Min Chang,  Yunqing Chen,  
 A. Chien,  K. D. Closser,  M. P. Coons,  S. Coriani,  S. Dasgupta,  
 A. L. Dempwolff,  M. Diedenhofen,  Hainam Do,  R. G. Edgar,  Po-Tung Fang,  
 S. Faraji,  S. Fatehi,  Qingguo Feng,  K. D. Fenk,  J. Fosso-Tande,  
 J. Gayvert,  Qinghui Ge,  A. Ghysels,  G. Gidofalvi,  J. Gomes,  
 J. Gonthier,  A. Gunina,  D. Hait,  M. W. D. Hanson-Heine,  
 P. H. P. Harbach,  A. W. Hauser,  M. F. Herbst,  J. E. Herr,  
 E. G. Hohenstein,  Z. C. Holden,  Kerwin Hui,  B. C. Huynh,  T.-C. Jagau,  
 Hyunjun Ji,  B. Kaduk,  K. Khistyaev,  Jaehoon Kim,  P. Klunzinger,  K. Koh,  
 D. Kosenkov,  L. Koulias,  T. Kowalczyk,  C. M. Krauter,  A. Kunitsa,  
 Ka Un Lao,  A. Laurent,  K. V. Lawler,  Joonho Lee,  D. Lefrancois,  
 S. Lehtola,  D. S. Levine,  Yi-Pei Li,  You-Sheng Lin,  Fenglai Liu,  
 E. Livshits,  A. Luenser,  P. Manohar,  E. Mansoor,  S. F. Manzer,  
 Shan-Ping Mao,  Yuezhi Mao,  N. Mardirossian,  A. V. Marenich,  
 T. Markovich,  L. A. Martinez-Martinez,  S. A. Maurer,  N. J. Mayhall,  
 S. C. McKenzie,  J.-M. Mewes,  P. Morgante,  A. F. Morrison,  
 J. W. Mullinax,  K. Nanda,  T. S. Nguyen-Beck,  R. Olivares-Amaya,  
 J. A. Parkhill,  Zheng Pei,  T. M. Perrine,  F. Plasser,  P. Pokhilko,  
 S. Prager,  A. Prociuk,  E. Ramos,  D. R. Rehn,  F. Rob,  M. Scheurer,  
 M. Schneider,  N. Sergueev,  S. M. Sharada,  S. Sharma,  D. W. Small,  
 T. Stauch,  T. Stein,  Yu-Chuan Su,  A. J. W. Thom,  A. Tkatchenko,  
 T. Tsuchimochi,  N. M. Tubman,  L. Vogt,  M. L. Vidal,  O. Vydrov,  
 M. A. Watson,  J. Wenzel,  M. de Wergifosse,  T. A. Wesolowski,  A. White,  
 J. Witte,  A. Yamada,  Jun Yang,  K. Yao,  S. Yeganeh,  S. R. Yost,  
 Zhi-Qiang You,  A. Zech,  Igor Ying Zhang,  Xing Zhang,  Yan Zhao,  
 Ying Zhu,  B. R. Brooks,  G. K. L. Chan,  C. J. Cramer,  M. S. Gordon,  
 W. J. Hehre,  A. Klamt,  M. W. Schmidt,  C. D. Sherrill,  D. G. Truhlar,  
 A. Aspuru-Guzik,  R. Baer,  A. T. Bell,  N. A. Besley,  Jeng-Da Chai,  
 A. E. DePrince, III,  R. A. DiStasio Jr.,  A. Dreuw,  B. D. Dunietz,  
 T. R. Furlani,  Chao-Ping Hsu,  Yousung Jung,  Jing Kong,  D. S. Lambrecht,  
 WanZhen Liang,  C. Ochsenfeld,  V. A. Rassolov,  L. V. Slipchenko,  
 J. E. Subotnik,  T. Van Voorhis,  J. M. Herbert,  A. I. Krylov,  
 P. M. W. Gill,  M. Head-Gordon

 Contributors to earlier versions of Q-Chem not listed above: 
 R. D. Adamson,  B. Austin,  J. Baker,  G. J. O. Beran,  K. Brandhorst,  
 S. T. Brown,  E. F. C. Byrd,  A. K. Chakraborty,  C.-L. Cheng,  
 Siu Hung Chien,  D. M. Chipman,  D. L. Crittenden,  H. Dachsel,  
 R. J. Doerksen,  A. D. Dutoi,  L. Fusti-Molnar,  W. A. Goddard III,  
 A. Golubeva-Zadorozhnaya,  S. R. Gwaltney,  G. Hawkins,  A. Heyden,  
 S. Hirata,  G. Kedziora,  F. J. Keil,  C. Kelley,  Jihan Kim,  R. A. King,  
 R. Z. Khaliullin,  P. P. Korambath,  W. Kurlancheek,  A. M. Lee,  M. S. Lee,  
 S. V. Levchenko,  Ching Yeh Lin,  D. Liotard,  R. C. Lochan,  I. Lotan,  
 P. E. Maslen,  N. Nair,  D. P. O'Neill,  D. Neuhauser,  E. Neuscamman,  
 C. M. Oana,  R. Olson,  B. Peters,  R. Peverati,  P. A. Pieniazek,  
 Y. M. Rhee,  J. Ritchie,  M. A. Rohrdanz,  E. Rosta,  N. J. Russ,  
 H. F. Schaefer III,  N. E. Schultz,  N. Shenvi,  A. C. Simmonett,  A. Sodt,  
 D. Stuck,  K. S. Thanthiriwatte,  V. Vanovschi,  Tao Wang,  A. Warshel,  
 C. F. Williams,  Q. Wu,  X. Xu,  W. Zhang

 Please cite Q-Chem as follows:
 Y. Shao et al., Mol. Phys. 113, 184-215 (2015)
 DOI: 10.1080/00268976.2014.952696

 Q-Chem 5.2.1 for Intel X86 EM64T Linux

 Parts of Q-Chem use Armadillo 8.300.2 (Tropical Shenanigans).
 http://arma.sourceforge.net/

 Q-Chem begins on Mon Dec 14 12:57:28 2020  

Host: 
0

     Scratch files written to /data/lab/qcscratch/scratch_6acfacb61499//
 Jul1919 |scratch|qcdevops|jenkins|workspace|build_RNUM 5954   
Processing $rem in /data/software/repo/qchem/5.2/config/preferences:
	 MEM_TOTAL  20480 
NAlpha2: 10
NElect   10
Mult     1

Checking the input file for inconsistencies... 	...done.

--------------------------------------------------------------
User input:
--------------------------------------------------------------

$molecule
1  1
O          0.0051704053       -1.1952677391       -0.0416966056
H          0.0000001889       -0.0000005650        0.0254607672
H          0.2438145411       -1.6941416518        0.7532562573
H         -0.7777029676       -1.6024150601       -0.4420975516
$end

$rem
GEOM_OPT_PRINT       6
jobtype              opt               ! single-point
method               wB97M-V           ! Functional
basis                aug-cc-pvtz       ! or def2-TZVPPD for Case 2
xc_grid              000099000590      ! Local XC Grid, 000075000302 for Case 2
nl_grid              1                 ! Nonlocal Grid, 0 for Case 2
unrestricted         false             ! true or false based on open-shell or closed-shell
max_scf_cycles       200
scf_convergence      8                 ! this can be reduced to 6 for quick calculations (default is 5)
thresh               14                ! Threshold for computing integrals: this can be reduced to 11 for quick calculations (default is 8)
symmetry             false             ! turn off exploitation of symmetry in integral computing
sym_ignore           true              ! ignore point-group symmetry (may result in reorientation and small shifts of the input geom)
incdft               0                 ! turn off incremental DFT
incfock              0                 ! turn off incremental Fock
GEOM_OPT_MAX_CYCLES  250
$end



--------------------------------------------------------------
 ----------------------------------------------------------------
             Standard Nuclear Orientation (Angstroms)
    I     Atom           X                Y                Z
 ----------------------------------------------------------------
    1      O       0.0051704053    -1.1952677391    -0.0416966056
    2      H       0.0000001889    -0.0000005650     0.0254607672
    3      H       0.2438145411    -1.6941416518     0.7532562573
    4      H      -0.7777029676    -1.6024150601    -0.4420975516
 ----------------------------------------------------------------
 Nuclear Repulsion Energy =          13.18447779 hartrees
 There are        5 alpha and        5 beta electrons
 Requested basis set is aug-cc-pVTZ
 There are 41 shells and 115 basis functions

 Total QAlloc Memory Limit  20480 MB
 Mega-Array Size       188 MB
 MEM_STATIC part       192 MB
 A cutoff of  1.0D-14 yielded    861 shell pairs
 There are      6841 function pairs (      8779 Cartesian)
 Smallest overlap matrix eigenvalue = 2.38E-04

 Scale SEOQF with 1.000000e-01/1.000000e-01/1.000000e-01

 Standard Electronic Orientation quadrupole field applied
 Nucleus-field energy     =     0.0000000011 hartrees
 Guess from superposition of atomic densities
 Warning:  Energy on first SCF cycle will be non-variational
 SAD guess density has 11.000000 electrons

 -----------------------------------------------------------------------
  General SCF calculation program by
  Eric Jon Sundstrom, Paul Horn, Yuezhi Mao, Dmitri Zuev, Alec White,
  David Stuck, Shaama M.S., Shane Yost, Joonho Lee, David Small,
  Daniel Levine, Susi Lehtola, Hugh Burton, Evgeny Epifanovsky,
  Bang C. Huynh
 -----------------------------------------------------------------------
 Exchange:     0.1500 Hartree-Fock + 1.0000 wB97M-V + LR-HF
 Correlation:  1.0000 wB97M-V
 Using Euler-Maclaurin-Lebedev (99,590) quadrature formula
 Nonlocal Correlation:  VV10 with C = 0.0100 and b = 6.00 and scale = 1.00000
 Grid used for NLC:  SG-1 standard quadrature
 using 4 threads for integral computing
 -------------------------------------------------------
 OpenMP Integral computing Module                
 Release: version 1.0, May 2013, Q-Chem Inc. Pittsburgh 
 -------------------------------------------------------
 using 4 threads for integral computing
 -------------------------------------------------------
 OpenMP Integral computing Module                
 Release: version 1.0, May 2013, Q-Chem Inc. Pittsburgh 
 -------------------------------------------------------
 -------------------------------------------------------
 OpenMP BLAS3 based DFT computing Module                
 Release: version 1.0, May 2013, Q-Chem Inc. Pittsburgh 
 -------------------------------------------------------
 -------------------------------------------------------
 OpenMP BLAS3 based DFT computing Module                
 Release: version 1.0, May 2013, Q-Chem Inc. Pittsburgh 
 -------------------------------------------------------
 -------------------------------------------------------
 OpenMP BLAS3 based DFT computing Module                
 Release: version 1.0, May 2013, Q-Chem Inc. Pittsburgh 
 -------------------------------------------------------
 A restricted SCF calculation will be
 performed using DIIS
 SCF converges when DIIS error is below 1.0e-08
 ---------------------------------------
  Cycle       Energy         DIIS error
 ---------------------------------------
    1     -76.9617050687      3.19e-02  
    2     -76.6574108222      3.19e-03  
    3     -76.6736965017      1.39e-03  
    4     -76.6752533757      6.36e-04  
    5     -76.6756692189      1.06e-04  
    6     -76.6756821932      1.08e-05  
    7     -76.6756824682      1.36e-06  
    8     -76.6756824777      3.02e-07  
    9     -76.6756824782      6.06e-08  
   10     -76.6756824783      1.28e-08  
   11     -76.6756824783      2.00e-09  Convergence criterion met
 ---------------------------------------
 SCF time:   CPU 39.79s  wall 10.00s 
 SCF   energy in the final basis set =      -76.6756824783
 Total energy in the final basis set =      -76.6756824783
 
 --------------------------------------------------------------
 
                    Orbital Energies (a.u.)
 --------------------------------------------------------------
 
 Alpha MOs
 -- Occupied --
-19.7545  -1.5398  -1.0219  -0.9883  -0.8275
 -- Virtual --
 -0.2431  -0.1542  -0.1262  -0.0876  -0.0839  -0.0558  -0.0502  -0.0200
 -0.0184   0.0019   0.0133   0.0159   0.1065   0.1245   0.1348   0.1443
  0.1578   0.1713   0.1725   0.2618   0.2763   0.3612   0.3694   0.3801
  0.4098   0.4801   0.4823   0.5599   0.5857   0.6035   0.6106   0.6327
  0.6549   0.6727   0.6900   0.7187   0.7270   0.7570   0.7903   0.8364
  0.8540   0.8776   0.8934   0.9377   0.9963   1.1629   1.1791   1.2636
  1.2712   1.2921   1.3895   1.4140   1.4257   1.5850   1.6101   1.7563
  1.8864   1.8950   1.9673   2.0529   2.0840   2.1959   2.2135   2.2649
  2.3644   2.4374   2.4566   2.8800   3.1605   3.2417   3.4509   3.4540
  3.5045   3.5504   3.6928   3.7097   3.7843   3.8076   3.8556   3.8738
  3.9417   3.9833   4.0358   4.0652   4.2255   4.2556   4.4126   4.5166
  4.5694   4.6250   4.6441   4.7698   4.8534   5.0843   5.3239   5.8404
  5.8666   6.2249   6.4570   6.5794   6.5904   6.6299   6.7023   6.7213
  6.8693   7.1442   7.1693   7.3712   8.0377  15.2204
 --------------------------------------------------------------
 
          Ground-State Mulliken Net Atomic Charges

     Atom                 Charge (a.u.)
  ----------------------------------------
      1 O                    -0.011591
      2 H                     0.459621
      3 H                     0.276227
      4 H                     0.275743
  ----------------------------------------
  Sum of atomic charges =     1.000000

 -----------------------------------------------------------------
                    Cartesian Multipole Moments
 -----------------------------------------------------------------
    Charge (ESU x 10^10)
                 4.8032
    Dipole Moment (Debye)
         X      -1.1220      Y      -4.8230      Z       0.7885
       Tot       5.0142
    Quadrupole Moments (Debye-Ang)
        XX      -4.7924     XY       1.9507     YY       3.6176
        XZ       1.6389     YZ      -1.4580     ZZ      -4.4467
    Octopole Moments (Debye-Ang^2)
       XXX      -0.6520    XXY       4.7862    XYY      -3.0246
       YYY       3.7648    XXZ      -0.5491    XYZ      -2.6047
       YYZ       2.8469    XZZ       0.1570    YZZ       4.1361
       ZZZ       1.1659
    Hexadecapole Moments (Debye-Ang^3)
      XXXX      -4.6956   XXXY       1.2749   XXYY      -6.4730
      XYYY       4.4323   YYYY     -26.2198   XXXZ       0.4579
      XXYZ       0.9487   XYYZ       4.1481   YYYZ      -5.3215
      XXZZ      -1.4614   XYZZ      -0.2471   YYZZ      -5.2296
      XZZZ       0.3302   YZZZ      -1.9043   ZZZZ      -4.7668
 -----------------------------------------------------------------
 Calculating analytic gradient of the SCF energy
 Gradient of SCF Energy
            1           2           3           4
    1  -0.0055711   0.0025701  -0.0056173   0.0086183
    2  -0.0881258   0.0988638  -0.0054135  -0.0053245
    3   0.0038471   0.0011581  -0.0114115   0.0064063
 Max gradient component =       9.886E-02
 RMS gradient           =       3.865E-02
 Gradient time:  CPU 13.35 s  wall 7.83 s
 Geometry Optimization Parameters
   NAtoms,    NIC,     NZ,  NCons,   NDum,   NFix, NCnnct, MaxDiis
        4      17       0       0       0       0       0       0


** GEOMETRY OPTIMIZATION IN DELOCALIZED INTERNAL COORDINATES **
   Searching for a Minimum

   Optimization Cycle:   1

                       Coordinates (Angstroms)
     ATOM                X               Y               Z
      1  O         0.0051704053   -1.1952677391   -0.0416966056
      2  H         0.0000001889   -0.0000005650    0.0254607672
      3  H         0.2438145411   -1.6941416518    0.7532562573
      4  H        -0.7777029676   -1.6024150601   -0.4420975516
   Point Group: c1    Number of degrees of freedom:     6


   Energy is    -76.675682478


                       Cartesian Gradient (au)
     ATOM              X           Y           Z
    1  O          -0.005571   -0.088126    0.003847
    2  H           0.002570    0.098864    0.001158
    3  H          -0.005617   -0.005414   -0.011411
    4  H           0.008618   -0.005324    0.006406

 Attempting to generate delocalized internal coordinates
 Generating Primitive Internal Coordinates
 Primitive Stretches:
         2    1
         3    1
         4    1
 There are      3 Stretches
 Primitive Bends:
         2    1    3
         2    1    4
         3    1    4
 There are      3 Bends
 There are      0 Torsions
 There are      6 Primitive Internals

 Generating Delocalized Internal Coordinates

   Eigenvalues of B*B(t):
     0.488235    0.750183    0.876910    1.291237    2.988823    3.404365

   Eigenvectors:


     0.223584    0.010830   -0.492843    0.552189   -0.011323    0.634001
     0.207694    0.394378    0.236247    0.526340   -0.578955   -0.365095
     0.221188   -0.377551    0.243485    0.524469    0.605331   -0.328259
     0.518727    0.599944   -0.325006   -0.236467    0.393994   -0.232835
     0.545029   -0.584571   -0.326905   -0.220188   -0.377772   -0.251315
     0.540199    0.012178    0.655372   -0.196434   -0.017759    0.489513

 There are      0 Redundant primitive internals

  Preliminary Set of Delocalized Internal Coordinates:


     0.223584    0.010830   -0.492843    0.552189   -0.011323    0.634001
     0.207694    0.394378    0.236247    0.526340   -0.578955   -0.365095
     0.221188   -0.377551    0.243485    0.524469    0.605331   -0.328259
     0.518727    0.599944   -0.325006   -0.236467    0.393994   -0.232835
     0.545029   -0.584571   -0.326905   -0.220188   -0.377772   -0.251315
     0.540199    0.012178    0.655372   -0.196434   -0.017759    0.489513

  Primitive Weights in Final Non-Redundant Optimization Space

  Weight for primitive     1 is    1.000000
  Weight for primitive     2 is    1.000000
  Weight for primitive     3 is    1.000000
  Weight for primitive     4 is    1.000000
  Weight for primitive     5 is    1.000000
  Weight for primitive     6 is    1.000000
 Setting up default Hessian from a force field
 Initial Hessian constructed with Jon Baker's OPTIMIZE code

   Hessian Matrix


     0.199087   -0.000282    0.028963    0.095771    0.004750   -0.043300
    -0.000282    0.272226    0.000112    0.004390   -0.171993   -0.007110
     0.028963    0.000112    0.224878    0.070729    0.004309   -0.090286
     0.095771    0.004390    0.070729    0.394889    0.003847   -0.106093
     0.004750   -0.171993    0.004309    0.003847    0.424104    0.004394
    -0.043300   -0.007110   -0.090286   -0.106093    0.004394    0.286423

  6 Hessian modes will be used to form the next step
  Hessian Eigenvalues:
     0.160000    0.160000    0.160000    0.248735    0.535797    0.537076

  Hessian Eigenvectors:


     0.014809    0.925989    0.016548    0.223584    0.221188   -0.207694
     0.189746   -0.018500    0.815756    0.010830   -0.377551   -0.394378
     0.781505   -0.001489   -0.176793   -0.492843    0.243485   -0.236247
     0.017818   -0.376379   -0.031735    0.552189    0.524469   -0.526340
     0.100556   -0.023195    0.536292   -0.011323    0.605331    0.578955
     0.585319    0.000000   -0.119984    0.634001   -0.328259    0.365095

 Minimum search - taking simple RFO step
 Searching for Lamda that Minimizes Along All modes
 in iterative cycle:  Lamda =   0.00000000 TEMP =  -0.04221280
 in iterative cycle:  Lamda =  -0.04221280 TEMP =  -0.03592711
 in iterative cycle:  Lamda =  -0.03592711 TEMP =  -0.03674017
 in iterative cycle:  Lamda =  -0.03674017 TEMP =  -0.03663290
 in iterative cycle:  Lamda =  -0.03663290 TEMP =  -0.03664702
 in iterative cycle:  Lamda =  -0.03664702 TEMP =  -0.03664516
 in iterative cycle:  Lamda =  -0.03664516 TEMP =  -0.03664541
 Value Taken    Lamda =  -0.03664516
 Calculated Step too Large.  Step scaled by  0.826901
 Step Taken.  Stepsize is  0.300000


     Parameter Values and Displacements in Internal Coordinates
  Coordinate  Current Value    Gradient  Displacement   New Value
       1           4.488678     0.030538    -0.108617     4.380062
       2           0.129426     0.002939    -0.011956     0.117470
       3          -0.324017    -0.065571     0.201933    -0.122084
       4           1.866924     0.041172    -0.124084     1.742840
       5           0.035847     0.000724    -0.004084     0.031763
       6           0.105892     0.058136    -0.147882    -0.041990

                             Maximum     Tolerance    Cnvgd?
         Gradient           0.065571      0.000300      NO
         Displacement       0.201933      0.001200      NO
         Energy change     *********      0.000001      NO


 New Cartesian Coordinates Obtained by Inverse Iteration

     Iterative generation of Cartesian Coordinates
     Internal   True Value     Estimate     Difference
         1      4.38006156    4.48867816   -0.10861660
         2      0.11747028    0.12942590   -0.01195563
         3     -0.12208370   -0.32401689    0.20193319
         4      1.74284009    1.86692388   -0.12408379
         5      0.03176250    0.03584654   -0.00408404
         6     -0.04198982    0.10589195   -0.14788177
     Cycle:   1  Maximum deviation:   0.20193319

     Iterative generation of Cartesian Coordinates
     Internal   True Value     Estimate     Difference
         1      4.38006156    4.37520405    0.00485751
         2      0.11747028    0.11710668    0.00036359
         3     -0.12208370   -0.12161569   -0.00046801
         4      1.74284009    1.74920280   -0.00636271
         5      0.03176250    0.03120852    0.00055398
         6     -0.04198982   -0.04031626   -0.00167356
     Cycle:   2  Maximum deviation:   0.00636271

     Iterative generation of Cartesian Coordinates
     Internal   True Value     Estimate     Difference
         1      4.38006156    4.38004242    0.00001914
         2      0.11747028    0.11747252   -0.00000225
         3     -0.12208370   -0.12208924    0.00000554
         4      1.74284009    1.74288413   -0.00004403
         5      0.03176250    0.03176414   -0.00000164
         6     -0.04198982   -0.04199779    0.00000797
     Cycle:   3  Maximum deviation:   0.00004403

     Iterative generation of Cartesian Coordinates
     Internal   True Value     Estimate     Difference
         1      4.38006156    4.38006156    0.00000000
         2      0.11747028    0.11747028    0.00000000
         3     -0.12208370   -0.12208370   -0.00000000
         4      1.74284009    1.74284009   -0.00000000
         5      0.03176250    0.03176250    0.00000000
         6     -0.04198982   -0.04198982   -0.00000000
     Cycle:   4  Maximum deviation:   0.00000000

 Displacement from previous Coordinates is:  0.297172
 ----------------------------------------------------------------
             Standard Nuclear Orientation (Angstroms)
    I     Atom           X                Y                Z
 ----------------------------------------------------------------
    1      O       0.0231882269    -1.1706136164    -0.0587614785
    2      H      -0.0203528431    -0.1303980982     0.0392733952
    3      H       0.2528047158    -1.6394201894     0.7640827613
    4      H      -0.7843579320    -1.5513931120    -0.4496718107
 ----------------------------------------------------------------
 Nuclear Repulsion Energy =          13.69301886 hartrees
 There are        5 alpha and        5 beta electrons
 Applying Cartesian multipole field
    Component          Value
    ---------          -----
     (2,0,0)        1.00000E-11
     (0,2,0)        2.00000E-11
     (0,0,2)       -3.00000E-11
 Nucleus-field energy     =     0.0000000011 hartrees
 Requested basis set is aug-cc-pVTZ
 There are 41 shells and 115 basis functions
 A cutoff of  1.0D-14 yielded    861 shell pairs
 There are      6841 function pairs (      8779 Cartesian)
 Smallest overlap matrix eigenvalue = 2.54E-04
 Guess MOs from SCF MO coefficient file

 -----------------------------------------------------------------------
  General SCF calculation program by
  Eric Jon Sundstrom, Paul Horn, Yuezhi Mao, Dmitri Zuev, Alec White,
  David Stuck, Shaama M.S., Shane Yost, Joonho Lee, David Small,
  Daniel Levine, Susi Lehtola, Hugh Burton, Evgeny Epifanovsky,
  Bang C. Huynh
 -----------------------------------------------------------------------
 Exchange:     0.1500 Hartree-Fock + 1.0000 wB97M-V + LR-HF
 Correlation:  1.0000 wB97M-V
 Using Euler-Maclaurin-Lebedev (99,590) quadrature formula
 Nonlocal Correlation:  VV10 with C = 0.0100 and b = 6.00 and scale = 1.00000
 Grid used for NLC:  SG-1 standard quadrature
 using 4 threads for integral computing
 -------------------------------------------------------
 OpenMP Integral computing Module                
 Release: version 1.0, May 2013, Q-Chem Inc. Pittsburgh 
 -------------------------------------------------------
 using 4 threads for integral computing
 -------------------------------------------------------
 OpenMP Integral computing Module                
 Release: version 1.0, May 2013, Q-Chem Inc. Pittsburgh 
 -------------------------------------------------------
 -------------------------------------------------------
 OpenMP BLAS3 based DFT computing Module                
 Release: version 1.0, May 2013, Q-Chem Inc. Pittsburgh 
 -------------------------------------------------------
 -------------------------------------------------------
 OpenMP BLAS3 based DFT computing Module                
 Release: version 1.0, May 2013, Q-Chem Inc. Pittsburgh 
 -------------------------------------------------------
 -------------------------------------------------------
 OpenMP BLAS3 based DFT computing Module                
 Release: version 1.0, May 2013, Q-Chem Inc. Pittsburgh 
 -------------------------------------------------------
 A restricted SCF calculation will be
 performed using DIIS
 SCF converges when DIIS error is below 1.0e-08
 ---------------------------------------
  Cycle       Energy         DIIS error
 ---------------------------------------
    1     -76.6956367304      1.90e-03  
    2     -76.6991331468      7.01e-04  
    3     -76.6994593004      4.12e-04  
    4     -76.6996250857      3.76e-05  
    5     -76.6996271506      6.27e-06  
    6     -76.6996272711      9.02e-07  
    7     -76.6996272755      1.61e-07  
    8     -76.6996272757      2.09e-08  
    9     -76.6996272757      4.63e-09  Convergence criterion met
 ---------------------------------------
 SCF time:   CPU 31.99s  wall 8.00s 
 SCF   energy in the final basis set =      -76.6996272757
 Total energy in the final basis set =      -76.6996272757
 
 --------------------------------------------------------------
 
                    Orbital Energies (a.u.)
 --------------------------------------------------------------
 
 Alpha MOs
 -- Occupied --
-19.7663  -1.5670  -1.0382  -1.0285  -0.8488
 -- Virtual --
 -0.2187  -0.1398  -0.1311  -0.0857  -0.0702  -0.0560  -0.0555  -0.0203
 -0.0197   0.0041   0.0078   0.0126   0.1189   0.1287   0.1469   0.1508
  0.1543   0.1640   0.1649   0.2647   0.2704   0.3598   0.3633   0.3682
  0.4129   0.4900   0.4906   0.5388   0.5777   0.6004   0.6127   0.6233
  0.6793   0.6871   0.6964   0.7171   0.7183   0.7709   0.8333   0.8466
  0.8533   0.8891   0.8906   0.9109   0.9289   1.1891   1.1964   1.2817
  1.2829   1.3474   1.3886   1.4180   1.5096   1.5859   1.5933   1.7792
  1.8786   1.8841   1.9980   2.0295   2.0588   2.1982   2.2350   2.2452
  2.3592   2.3598   2.4491   3.1258   3.2055   3.2580   3.4663   3.4926
  3.5186   3.7735   3.7878   3.8037   3.8394   3.8420   3.9409   3.9991
  4.0128   4.0569   4.0674   4.1105   4.1708   4.4104   4.4958   4.5310
  4.5659   4.5911   4.6314   4.7510   5.1042   5.1599   5.3134   5.8218
  5.9111   6.2508   6.4956   6.5605   6.6451   6.6706   6.7531   6.8100
  6.9684   7.2282   7.2484   7.7305   8.0320  15.6458
 --------------------------------------------------------------
 
          Ground-State Mulliken Net Atomic Charges

     Atom                 Charge (a.u.)
  ----------------------------------------
      1 O                     0.091465
      2 H                     0.357782
      3 H                     0.275303
      4 H                     0.275449
  ----------------------------------------
  Sum of atomic charges =     1.000000

 -----------------------------------------------------------------
                    Cartesian Multipole Moments
 -----------------------------------------------------------------
    Charge (ESU x 10^10)
                 4.8032
    Dipole Moment (Debye)
         X      -1.2150      Y      -5.1381      Z       0.8594
       Tot       5.3493
    Quadrupole Moments (Debye-Ang)
        XX      -4.5939     XY       1.9202     YY       3.2391
        XZ       1.6820     YZ      -1.4596     ZZ      -4.2279
    Octopole Moments (Debye-Ang^2)
       XXX      -0.9830    XXY       4.5369    XYY      -2.9425
       YYY       4.5993    XXZ      -0.4804    XYZ      -2.6067
       YYZ       2.8038    XZZ       0.0664    YZZ       3.8706
       ZZZ       1.4734
    Hexadecapole Moments (Debye-Ang^3)
      XXXX      -4.4431   XXXY       1.6426   XXYY      -6.0282
      XYYY       4.3230   YYYY     -26.6973   XXXZ       0.4864
      XXYZ       0.8471   XYYZ       4.0270   YYYZ      -5.1972
      XXZZ      -1.3742   XYZZ      -0.1388   YYZZ      -4.8064
      XZZZ       0.3624   YZZZ      -2.2316   ZZZZ      -4.5487
 -----------------------------------------------------------------
 Calculating analytic gradient of the SCF energy
 Gradient of SCF Energy
            1           2           3           4
    1   0.0003944  -0.0011293  -0.0029035   0.0036384
    2  -0.0442344   0.0483522  -0.0023329  -0.0017849
    3  -0.0008186   0.0023911  -0.0049062   0.0033337
 Max gradient component =       4.835E-02
 RMS gradient           =       1.908E-02
 Gradient time:  CPU 11.96 s  wall 6.59 s
 Geometry Optimization Parameters
   NAtoms,    NIC,     NZ,  NCons,   NDum,   NFix, NCnnct, MaxDiis
        4      17       0       0       0       0       0       0

 Cartesian Hessian Update
 Hessian updated using BFGS update


** GEOMETRY OPTIMIZATION IN DELOCALIZED INTERNAL COORDINATES **
   Searching for a Minimum

   Optimization Cycle:   2

                       Coordinates (Angstroms)
     ATOM                X               Y               Z
      1  O         0.0231882269   -1.1706136164   -0.0587614785
      2  H        -0.0203528431   -0.1303980982    0.0392733952
      3  H         0.2528047158   -1.6394201894    0.7640827613
      4  H        -0.7843579320   -1.5513931120   -0.4496718107
   Point Group: c1    Number of degrees of freedom:     6


   Energy is    -76.699627276


                       Cartesian Gradient (au)
     ATOM              X           Y           Z
    1  O           0.000394   -0.044234   -0.000819
    2  H          -0.001129    0.048352    0.002391
    3  H          -0.002904   -0.002333   -0.004906
    4  H           0.003638   -0.001785    0.003334
 Hessian updated using BFGS update

   Hessian Matrix


     0.200678   -0.000942    0.033923    0.090344    0.004641   -0.050131
    -0.000942    0.272118    0.002053    0.003035   -0.172015   -0.009011
     0.033923    0.002053    0.198533    0.091524    0.004672   -0.062070
     0.090344    0.003035    0.091524    0.379380    0.003584   -0.127456
     0.004641   -0.172015    0.004672    0.003584    0.424100    0.004028
    -0.050131   -0.009011   -0.062070   -0.127456    0.004028    0.257117

  5 Hessian modes will be used to form the next step
  Hessian Eigenvalues:
     0.156056    0.163521    0.180438    0.535147    0.536764

  Hessian Eigenvectors:


     0.274247    0.813433    0.374038    0.280442   -0.129123
    -0.268876   -0.026951   -0.091968   -0.232698   -0.493919
     0.816675   -0.335631   -0.242601    0.292429   -0.140936
    -0.300982   -0.371391    0.438185    0.676797   -0.339749
    -0.191142   -0.016600   -0.086577    0.391344    0.740573
     0.241684   -0.294526    0.770247   -0.412898    0.235860

 Minimum search - taking simple RFO step
 Searching for Lamda that Minimizes Along All modes
 in iterative cycle:  Lamda =   0.00000000 TEMP =  -0.01385378
 in iterative cycle:  Lamda =  -0.01385378 TEMP =  -0.01283361
 in iterative cycle:  Lamda =  -0.01283361 TEMP =  -0.01290356
 in iterative cycle:  Lamda =  -0.01290356 TEMP =  -0.01289874
 in iterative cycle:  Lamda =  -0.01289874 TEMP =  -0.01289907
 Value Taken    Lamda =  -0.01289874
 Step Taken.  Stepsize is  0.262474


     Parameter Values and Displacements in Internal Coordinates
  Coordinate  Current Value    Gradient  Displacement   New Value
       1           4.380062     0.011787    -0.061844     4.318218
       2           0.117470     0.001861    -0.014378     0.103093
       3          -0.122084    -0.031386     0.172370     0.050286
       4           1.742840     0.021563    -0.125886     1.616954
       5           0.031763     0.000447    -0.005557     0.026206
       6          -0.041990     0.028931    -0.138823    -0.180813

                             Maximum     Tolerance    Cnvgd?
         Gradient           0.031386      0.000300      NO
         Displacement       0.172370      0.001200      NO
         Energy change     -0.023945      0.000001      NO


 New Cartesian Coordinates Obtained by Inverse Iteration

     Iterative generation of Cartesian Coordinates
     Internal   True Value     Estimate     Difference
         1      4.31821758    4.38006156   -0.06184398
         2      0.10309263    0.11747028   -0.01437765
         3      0.05028596   -0.12208370    0.17236966
         4      1.61695431    1.74284009   -0.12588578
         5      0.02620577    0.03176250   -0.00555673
         6     -0.18081285   -0.04198982   -0.13882303
     Cycle:   1  Maximum deviation:   0.17236966

     Iterative generation of Cartesian Coordinates
     Internal   True Value     Estimate     Difference
         1      4.31821758    4.31682388    0.00139370
         2      0.10309263    0.10215845    0.00093418
         3      0.05028596    0.05087478   -0.00058882
         4      1.61695431    1.61853136   -0.00157705
         5      0.02620577    0.02536017    0.00084560
         6     -0.18081285   -0.17990549   -0.00090736
     Cycle:   2  Maximum deviation:   0.00157705

     Iterative generation of Cartesian Coordinates
     Internal   True Value     Estimate     Difference
         1      4.31821758    4.31821620    0.00000138
         2      0.10309263    0.10309405   -0.00000142
         3      0.05028596    0.05028496    0.00000100
         4      1.61695431    1.61695795   -0.00000364
         5      0.02620577    0.02620624   -0.00000047
         6     -0.18081285   -0.18081340    0.00000055
     Cycle:   3  Maximum deviation:   0.00000364

     Iterative generation of Cartesian Coordinates
     Internal   True Value     Estimate     Difference
         1      4.31821758    4.31821758    0.00000000
         2      0.10309263    0.10309263    0.00000000
         3      0.05028596    0.05028596   -0.00000000
         4      1.61695431    1.61695431   -0.00000000
         5      0.02620577    0.02620577    0.00000000
         6     -0.18081285   -0.18081285   -0.00000000
     Cycle:   4  Maximum deviation:   0.00000000

 Displacement from previous Coordinates is:  0.243611
 ----------------------------------------------------------------
             Standard Nuclear Orientation (Angstroms)
    I     Atom           X                Y                Z
 ----------------------------------------------------------------
    1      O       0.0231238311    -1.1416162891    -0.0603376792
    2      H      -0.0305913402    -0.2394992570     0.0468715508
    3      H       0.2674419645    -1.5969223599     0.7719876986
    4      H      -0.7886922878    -1.5137871101    -0.4635987029
 ----------------------------------------------------------------
 Nuclear Repulsion Energy =          14.29357992 hartrees
 There are        5 alpha and        5 beta electrons
 Applying Cartesian multipole field
    Component          Value
    ---------          -----
     (2,0,0)        1.00000E-11
     (0,2,0)        2.00000E-11
     (0,0,2)       -3.00000E-11
 Nucleus-field energy     =     0.0000000010 hartrees
 Requested basis set is aug-cc-pVTZ
 There are 41 shells and 115 basis functions
 A cutoff of  1.0D-14 yielded    861 shell pairs
 There are      6841 function pairs (      8779 Cartesian)
 Smallest overlap matrix eigenvalue = 2.33E-04
 Guess MOs from SCF MO coefficient file

 -----------------------------------------------------------------------
  General SCF calculation program by
  Eric Jon Sundstrom, Paul Horn, Yuezhi Mao, Dmitri Zuev, Alec White,
  David Stuck, Shaama M.S., Shane Yost, Joonho Lee, David Small,
  Daniel Levine, Susi Lehtola, Hugh Burton, Evgeny Epifanovsky,
  Bang C. Huynh
 -----------------------------------------------------------------------
 Exchange:     0.1500 Hartree-Fock + 1.0000 wB97M-V + LR-HF
 Correlation:  1.0000 wB97M-V
 Using Euler-Maclaurin-Lebedev (99,590) quadrature formula
 Nonlocal Correlation:  VV10 with C = 0.0100 and b = 6.00 and scale = 1.00000
 Grid used for NLC:  SG-1 standard quadrature
 using 4 threads for integral computing
 -------------------------------------------------------
 OpenMP Integral computing Module                
 Release: version 1.0, May 2013, Q-Chem Inc. Pittsburgh 
 -------------------------------------------------------
 using 4 threads for integral computing
 -------------------------------------------------------
 OpenMP Integral computing Module                
 Release: version 1.0, May 2013, Q-Chem Inc. Pittsburgh 
 -------------------------------------------------------
 -------------------------------------------------------
 OpenMP BLAS3 based DFT computing Module                
 Release: version 1.0, May 2013, Q-Chem Inc. Pittsburgh 
 -------------------------------------------------------
 -------------------------------------------------------
 OpenMP BLAS3 based DFT computing Module                
 Release: version 1.0, May 2013, Q-Chem Inc. Pittsburgh 
 -------------------------------------------------------
 -------------------------------------------------------
 OpenMP BLAS3 based DFT computing Module                
 Release: version 1.0, May 2013, Q-Chem Inc. Pittsburgh 
 -------------------------------------------------------
 A restricted SCF calculation will be
 performed using DIIS
 SCF converges when DIIS error is below 1.0e-08
 ---------------------------------------
  Cycle       Energy         DIIS error
 ---------------------------------------
    1     -76.6936319974      2.14e-03  
    2     -76.6980030904      6.19e-04  
    3     -76.6982587439      3.61e-04  
    4     -76.6983814261      5.17e-05  
    5     -76.6983845944      6.33e-06  
    6     -76.6983846951      6.79e-07  
    7     -76.6983846971      9.70e-08  
    8     -76.6983846971      2.34e-08  
    9     -76.6983846971      4.12e-09  Convergence criterion met
 ---------------------------------------
 SCF time:   CPU 31.44s  wall 8.00s 
 SCF   energy in the final basis set =      -76.6983846971
 Total energy in the final basis set =      -76.6983846971
 
 --------------------------------------------------------------
 
                    Orbital Energies (a.u.)
 --------------------------------------------------------------
 
 Alpha MOs
 -- Occupied --
-19.7694  -1.5969  -1.0691  -1.0518  -0.8631
 -- Virtual --
 -0.2118  -0.1351  -0.1289  -0.0870  -0.0618  -0.0565  -0.0456  -0.0198
 -0.0197   0.0052   0.0072   0.0124   0.1226   0.1311   0.1530   0.1540
  0.1582   0.1599   0.1811   0.2615   0.2671   0.3609   0.3629   0.3644
  0.4210   0.4968   0.4984   0.5355   0.5795   0.6001   0.6175   0.6240
  0.6873   0.6924   0.7031   0.7199   0.7277   0.7820   0.8498   0.8515
  0.8602   0.8888   0.9000   0.9104   0.9135   1.1871   1.1902   1.2443
  1.3161   1.3803   1.3821   1.4117   1.5738   1.5827   1.6498   1.7924
  1.8723   1.9012   1.9618   2.0601   2.0729   2.1863   2.2295   2.2600
  2.3528   2.3712   2.4650   3.2370   3.2561   3.3319   3.4811   3.5135
  3.5639   3.8225   3.8276   3.8645   3.8938   3.8942   3.9966   4.0064
  4.0285   4.0971   4.1648   4.1719   4.2258   4.4972   4.5396   4.5924
  4.6483   4.6744   4.7858   4.8137   5.1766   5.3654   5.4363   5.8207
  5.9303   6.3036   6.5485   6.6322   6.6712   6.7035   6.8688   6.9814
  7.0407   7.3244   7.4566   7.9795   8.2109  17.2200
 --------------------------------------------------------------
 
          Ground-State Mulliken Net Atomic Charges

     Atom                 Charge (a.u.)
  ----------------------------------------
      1 O                     0.245991
      2 H                     0.181088
      3 H                     0.286334
      4 H                     0.286587
  ----------------------------------------
  Sum of atomic charges =     1.000000

 -----------------------------------------------------------------
                    Cartesian Multipole Moments
 -----------------------------------------------------------------
    Charge (ESU x 10^10)
                 4.8032
    Dipole Moment (Debye)
         X      -1.2395      Y      -5.3627      Z       0.8728
       Tot       5.5729
    Quadrupole Moments (Debye-Ang)
        XX      -4.4107     XY       1.8647     YY       3.0501
        XZ       1.7613     YZ      -1.4165     ZZ      -4.0139
    Octopole Moments (Debye-Ang^2)
       XXX      -1.0396    XXY       4.2765    XYY      -2.7656
       YYY       4.9565    XXZ      -0.4925    XYZ      -2.6721
       YYZ       2.6402    XZZ       0.0607    YZZ       3.5804
       ZZZ       1.5369
    Hexadecapole Moments (Debye-Ang^3)
      XXXX      -4.2426   XXXY       1.6721   XXYY      -5.5494
      XYYY       3.9453   YYYY     -26.1085   XXXZ       0.5116
      XXYZ       0.8520   XYYZ       4.0285   YYYZ      -4.7806
      XXZZ      -1.2724   XYZZ      -0.1339   YYZZ      -4.3239
      XZZZ       0.4015   YZZZ      -2.2487   ZZZZ      -4.3389
 -----------------------------------------------------------------
 Calculating analytic gradient of the SCF energy
 Gradient of SCF Energy
            1           2           3           4
    1  -0.0021116   0.0035101  -0.0003977  -0.0010008
    2   0.0766842  -0.0786396   0.0010256   0.0009298
    3   0.0071252  -0.0082647   0.0008798   0.0002597
 Max gradient component =       7.864E-02
 RMS gradient           =       3.189E-02
 Gradient time:  CPU 12.88 s  wall 7.35 s
 Geometry Optimization Parameters
   NAtoms,    NIC,     NZ,  NCons,   NDum,   NFix, NCnnct, MaxDiis
        4      17       0       0       0       0       0       0

 Cartesian Hessian Update
 Hessian updated using BFGS update


** GEOMETRY OPTIMIZATION IN DELOCALIZED INTERNAL COORDINATES **
   Searching for a Minimum

   Optimization Cycle:   3

                       Coordinates (Angstroms)
     ATOM                X               Y               Z
      1  O         0.0231238311   -1.1416162891   -0.0603376792
      2  H        -0.0305913402   -0.2394992570    0.0468715508
      3  H         0.2674419645   -1.5969223599    0.7719876986
      4  H        -0.7886922878   -1.5137871101   -0.4635987029
   Point Group: c1    Number of degrees of freedom:     6


   Energy is    -76.698384697


                       Cartesian Gradient (au)
     ATOM              X           Y           Z
    1  O          -0.002112    0.076684    0.007125
    2  H           0.003510   -0.078640   -0.008265
    3  H          -0.000398    0.001026    0.000880
    4  H          -0.001001    0.000930    0.000260
 Hessian updated using BFGS update

   Hessian Matrix


     0.223823    0.000439   -0.011012    0.135332    0.003799    0.003275
     0.000439    0.272140   -0.000165    0.005803   -0.172111   -0.005930
    -0.011012   -0.000165    0.282219    0.003534    0.006660   -0.164948
     0.135332    0.005803    0.003534    0.466709    0.002010   -0.023499
     0.003799   -0.172111    0.006660    0.002010    0.424096    0.002004
     0.003275   -0.005930   -0.164948   -0.023499    0.002004    0.380167

  6 Hessian modes will be used to form the next step
  Hessian Eigenvalues:
     0.157661    0.160002    0.163213    0.496523    0.534997    0.536756

  Hessian Eigenvectors:


     0.306611    0.144861    0.845797    0.222309    0.317757   -0.138713
    -0.242397    0.800328   -0.050121    0.001543   -0.217325   -0.500973
     0.729813    0.207560   -0.254339   -0.549306    0.221485   -0.093862
    -0.097224   -0.072369   -0.392337    0.386505    0.746975   -0.352170
    -0.182388    0.513579   -0.033948   -0.012234    0.369047    0.751980
     0.521429    0.162506   -0.249692    0.706614   -0.329510    0.177418

 Minimum search - taking simple RFO step
 Searching for Lamda that Minimizes Along All modes
 in iterative cycle:  Lamda =   0.00000000 TEMP =  -0.01263263
 in iterative cycle:  Lamda =  -0.01263263 TEMP =  -0.01231931
 in iterative cycle:  Lamda =  -0.01231931 TEMP =  -0.01232690
 in iterative cycle:  Lamda =  -0.01232690 TEMP =  -0.01232671
 Value Taken    Lamda =  -0.01232690
 Step Taken.  Stepsize is  0.155609


     Parameter Values and Displacements in Internal Coordinates
  Coordinate  Current Value    Gradient  Displacement   New Value
       1           4.318218    -0.021472     0.039054     4.357271
       2           0.103093    -0.001058     0.003546     0.106638
       3           0.050286     0.040360    -0.082904    -0.032618
       4           1.616954    -0.041781     0.081455     1.698409
       5           0.026206     0.000947    -0.000661     0.025545
       6          -0.180813    -0.049447     0.095749    -0.085064

                             Maximum     Tolerance    Cnvgd?
         Gradient           0.049447      0.000300      NO
         Displacement       0.095749      0.001200      NO
         Energy change      0.001243      0.000001      NO


 New Cartesian Coordinates Obtained by Inverse Iteration

     Iterative generation of Cartesian Coordinates
     Internal   True Value     Estimate     Difference
         1      4.35727140    4.31821758    0.03905382
         2      0.10663844    0.10309263    0.00354581
         3     -0.03261790    0.05028596   -0.08290386
         4      1.69840924    1.61695431    0.08145492
         5      0.02554483    0.02620577   -0.00066094
         6     -0.08506387   -0.18081285    0.09574898
     Cycle:   1  Maximum deviation:   0.09574898

     Iterative generation of Cartesian Coordinates
     Internal   True Value     Estimate     Difference
         1      4.35727140    4.35663382    0.00063758
         2      0.10663844    0.10653704    0.00010140
         3     -0.03261790   -0.03232150   -0.00029640
         4      1.69840924    1.69885553   -0.00044629
         5      0.02554483    0.02547208    0.00007275
         6     -0.08506387   -0.08461155   -0.00045232
     Cycle:   2  Maximum deviation:   0.00063758

     Iterative generation of Cartesian Coordinates
     Internal   True Value     Estimate     Difference
         1      4.35727140    4.35727111    0.00000028
         2      0.10663844    0.10663848   -0.00000004
         3     -0.03261790   -0.03261805    0.00000015
         4      1.69840924    1.69840984   -0.00000060
         5      0.02554483    0.02554484   -0.00000001
         6     -0.08506387   -0.08506404    0.00000017
     Cycle:   3  Maximum deviation:   0.00000060

     Iterative generation of Cartesian Coordinates
     Internal   True Value     Estimate     Difference
         1      4.35727140    4.35727140    0.00000000
         2      0.10663844    0.10663844    0.00000000
         3     -0.03261790   -0.03261790   -0.00000000
         4      1.69840924    1.69840924   -0.00000000
         5      0.02554483    0.02554483    0.00000000
         6     -0.08506387   -0.08506387   -0.00000000
     Cycle:   4  Maximum deviation:   0.00000000

 Displacement from previous Coordinates is:  0.135851
 ----------------------------------------------------------------
             Standard Nuclear Orientation (Angstroms)
    I     Atom           X                Y                Z
 ----------------------------------------------------------------
    1      O       0.0222311170    -1.1631298394    -0.0605583379
    2      H      -0.0245279939    -0.1776211669     0.0449564946
    3      H       0.2638723086    -1.6175125387     0.7719462237
    4      H      -0.7902932640    -1.5335614710    -0.4614215130
 ----------------------------------------------------------------
 Nuclear Repulsion Energy =          13.88872426 hartrees
 There are        5 alpha and        5 beta electrons
 Applying Cartesian multipole field
    Component          Value
    ---------          -----
     (2,0,0)        1.00000E-11
     (0,2,0)        2.00000E-11
     (0,0,2)       -3.00000E-11
 Nucleus-field energy     =     0.0000000011 hartrees
 Requested basis set is aug-cc-pVTZ
 There are 41 shells and 115 basis functions
 A cutoff of  1.0D-14 yielded    861 shell pairs
 There are      6841 function pairs (      8779 Cartesian)
 Smallest overlap matrix eigenvalue = 2.56E-04
 Guess MOs from SCF MO coefficient file

 -----------------------------------------------------------------------
  General SCF calculation program by
  Eric Jon Sundstrom, Paul Horn, Yuezhi Mao, Dmitri Zuev, Alec White,
  David Stuck, Shaama M.S., Shane Yost, Joonho Lee, David Small,
  Daniel Levine, Susi Lehtola, Hugh Burton, Evgeny Epifanovsky,
  Bang C. Huynh
 -----------------------------------------------------------------------
 Exchange:     0.1500 Hartree-Fock + 1.0000 wB97M-V + LR-HF
 Correlation:  1.0000 wB97M-V
 Using Euler-Maclaurin-Lebedev (99,590) quadrature formula
 Nonlocal Correlation:  VV10 with C = 0.0100 and b = 6.00 and scale = 1.00000
 Grid used for NLC:  SG-1 standard quadrature
 using 4 threads for integral computing
 -------------------------------------------------------
 OpenMP Integral computing Module                
 Release: version 1.0, May 2013, Q-Chem Inc. Pittsburgh 
 -------------------------------------------------------
 using 4 threads for integral computing
 -------------------------------------------------------
 OpenMP Integral computing Module                
 Release: version 1.0, May 2013, Q-Chem Inc. Pittsburgh 
 -------------------------------------------------------
 -------------------------------------------------------
 OpenMP BLAS3 based DFT computing Module                
 Release: version 1.0, May 2013, Q-Chem Inc. Pittsburgh 
 -------------------------------------------------------
 -------------------------------------------------------
 OpenMP BLAS3 based DFT computing Module                
 Release: version 1.0, May 2013, Q-Chem Inc. Pittsburgh 
 -------------------------------------------------------
 -------------------------------------------------------
 OpenMP BLAS3 based DFT computing Module                
 Release: version 1.0, May 2013, Q-Chem Inc. Pittsburgh 
 -------------------------------------------------------
 A restricted SCF calculation will be
 performed using DIIS
 SCF converges when DIIS error is below 1.0e-08
 ---------------------------------------
  Cycle       Energy         DIIS error
 ---------------------------------------
    1     -76.7006458024      1.55e-03  
    2     -76.7029146700      2.67e-04  
    3     -76.7029773537      1.36e-04  
    4     -76.7029941452      4.49e-05  
    5     -76.7029962658      4.95e-06  
    6     -76.7029963231      5.92e-07  
    7     -76.7029963247      8.90e-08  
    8     -76.7029963247      1.46e-08  
    9     -76.7029963247      2.62e-09  Convergence criterion met
 ---------------------------------------
 SCF time:   CPU 31.31s  wall 8.00s 
 SCF   energy in the final basis set =      -76.7029963247
 Total energy in the final basis set =      -76.7029963247
 
 --------------------------------------------------------------
 
                    Orbital Energies (a.u.)
 --------------------------------------------------------------
 
 Alpha MOs
 -- Occupied --
-19.7681  -1.5766  -1.0444  -1.0416  -0.8542
 -- Virtual --
 -0.2150  -0.1345  -0.1330  -0.0862  -0.0627  -0.0570  -0.0558  -0.0201
 -0.0200   0.0057   0.0062   0.0121   0.1212   0.1297   0.1528   0.1532
  0.1579   0.1617   0.1617   0.2658   0.2670   0.3603   0.3641   0.3646
  0.4147   0.4934   0.4935   0.5359   0.5776   0.6001   0.6175   0.6190
  0.6866   0.6880   0.6970   0.7176   0.7182   0.7751   0.8459   0.8505
  0.8517   0.8928   0.8933   0.9101   0.9126   1.1923   1.1934   1.2695
  1.2980   1.3714   1.3752   1.4094   1.5678   1.5829   1.5844   1.7885
  1.8772   1.8793   1.9790   2.0515   2.0554   2.2104   2.2190   2.2447
  2.3551   2.3574   2.4528   3.2031   3.2157   3.2674   3.4822   3.4875
  3.5331   3.8042   3.8066   3.8446   3.8508   3.8527   3.9964   4.0054
  4.0143   4.1032   4.1069   4.1214   4.1477   4.4723   4.4891   4.5790
  4.5887   4.6013   4.6398   4.7596   5.1158   5.2901   5.3128   5.8481
  5.8659   6.2698   6.5369   6.5544   6.6639   6.6665   6.7804   6.8627
  6.9869   7.2596   7.2681   7.9465   7.9980  16.0696
 --------------------------------------------------------------
 
          Ground-State Mulliken Net Atomic Charges

     Atom                 Charge (a.u.)
  ----------------------------------------
      1 O                     0.141990
      2 H                     0.297795
      3 H                     0.280030
      4 H                     0.280185
  ----------------------------------------
  Sum of atomic charges =     1.000000

 -----------------------------------------------------------------
                    Cartesian Multipole Moments
 -----------------------------------------------------------------
    Charge (ESU x 10^10)
                 4.8032
    Dipole Moment (Debye)
         X      -1.2241      Y      -5.2296      Z       0.8680
       Tot       5.4407
    Quadrupole Moments (Debye-Ang)
        XX      -4.4990     XY       1.8908     YY       3.0994
        XZ       1.7502     YZ      -1.4294     ZZ      -4.1088
    Octopole Moments (Debye-Ang^2)
       XXX      -1.0122    XXY       4.4185    XYY      -2.8496
       YYY       4.9661    XXZ      -0.4943    XYZ      -2.6861
       YYZ       2.7092    XZZ       0.0674    YZZ       3.7260
       ZZZ       1.5272
    Hexadecapole Moments (Debye-Ang^3)
      XXXX      -4.3553   XXXY       1.6681   XXYY      -5.8349
      XYYY       4.1213   YYYY     -27.0805   XXXZ       0.5128
      XXYZ       0.8606   XYYZ       4.0999   YYYZ      -4.9773
      XXZZ      -1.3182   XYZZ      -0.1400   YYZZ      -4.5976
      XZZZ       0.3967   YZZZ      -2.2793   ZZZZ      -4.4576
 -----------------------------------------------------------------
 Calculating analytic gradient of the SCF energy
 Gradient of SCF Energy
            1           2           3           4
    1   0.0005269  -0.0004397  -0.0001217   0.0000344
    2  -0.0108071   0.0114875  -0.0003855  -0.0002948
    3  -0.0008533   0.0009646  -0.0001968   0.0000856
 Max gradient component =       1.149E-02
 RMS gradient           =       4.575E-03
 Gradient time:  CPU 12.45 s  wall 7.20 s
 Geometry Optimization Parameters
   NAtoms,    NIC,     NZ,  NCons,   NDum,   NFix, NCnnct, MaxDiis
        4      17       0       0       0       0       0       0

 Cartesian Hessian Update
 Hessian updated using BFGS update


** GEOMETRY OPTIMIZATION IN DELOCALIZED INTERNAL COORDINATES **
   Searching for a Minimum

   Optimization Cycle:   4

                       Coordinates (Angstroms)
     ATOM                X               Y               Z
      1  O         0.0222311170   -1.1631298394   -0.0605583379
      2  H        -0.0245279939   -0.1776211669    0.0449564946
      3  H         0.2638723086   -1.6175125387    0.7719462237
      4  H        -0.7902932640   -1.5335614710   -0.4614215130
   Point Group: c1    Number of degrees of freedom:     6


   Energy is    -76.702996325


                       Cartesian Gradient (au)
     ATOM              X           Y           Z
    1  O           0.000527   -0.010807   -0.000853
    2  H          -0.000440    0.011487    0.000965
    3  H          -0.000122   -0.000386   -0.000197
    4  H           0.000034   -0.000295    0.000086
 Hessian updated using BFGS update

   Hessian Matrix


     0.229671    0.000970   -0.023059    0.147349    0.003845    0.016820
     0.000970    0.272179   -0.001220    0.006872   -0.172119   -0.004702
    -0.023059   -0.001220    0.306862   -0.021118    0.006614   -0.192837
     0.147349    0.006872   -0.021118    0.491342    0.002076    0.004327
     0.003845   -0.172119    0.006614    0.002076    0.424082    0.002107
     0.016820   -0.004702   -0.192837    0.004327    0.002107    0.411540

  6 Hessian modes will be used to form the next step
  Hessian Eigenvalues:
     0.157749    0.160003    0.163215    0.533068    0.536549    0.585093

  Hessian Eigenvectors:


     0.307666    0.143859    0.846897    0.260302   -0.035841    0.313639
    -0.239234    0.801171   -0.051214   -0.084951   -0.539301    0.014364
     0.725754    0.205357   -0.252886    0.392556   -0.066857   -0.456715
    -0.090773   -0.072811   -0.392027    0.657167   -0.117617    0.622151
    -0.180554    0.514238   -0.034743    0.168911    0.820422   -0.011371
     0.529670    0.159734   -0.247587   -0.557249    0.128351    0.552843

 Minimum search - taking simple RFO step
 Searching for Lamda that Minimizes Along All modes
 in iterative cycle:  Lamda =   0.00000000 TEMP =  -0.00023004
 in iterative cycle:  Lamda =  -0.00023004 TEMP =  -0.00022995
 Value Taken    Lamda =  -0.00023004
 Step Taken.  Stepsize is  0.020030


     Parameter Values and Displacements in Internal Coordinates
  Coordinate  Current Value    Gradient  Displacement   New Value
       1           4.357271     0.003023    -0.004286     4.352985
       2           0.106638     0.000269    -0.001222     0.105416
       3          -0.032618    -0.006174     0.012259    -0.020359
       4           1.698409     0.006184    -0.010653     1.687756
       5           0.025545     0.000029    -0.000610     0.024935
       6          -0.085064     0.006936    -0.010826    -0.095890

                             Maximum     Tolerance    Cnvgd?
         Gradient           0.006936      0.000300      NO
         Displacement       0.012259      0.001200      NO
         Energy change     -0.004612      0.000001      NO


 New Cartesian Coordinates Obtained by Inverse Iteration

     Iterative generation of Cartesian Coordinates
     Internal   True Value     Estimate     Difference
         1      4.35298509    4.35727140   -0.00428631
         2      0.10541619    0.10663844   -0.00122225
         3     -0.02035879   -0.03261790    0.01225911
         4      1.68775634    1.69840924   -0.01065290
         5      0.02493460    0.02554483   -0.00061023
         6     -0.09588982   -0.08506387   -0.01082594
     Cycle:   1  Maximum deviation:   0.01225911

     Iterative generation of Cartesian Coordinates
     Internal   True Value     Estimate     Difference
         1      4.35298509    4.35297963    0.00000546
         2      0.10541619    0.10540914    0.00000705
         3     -0.02035879   -0.02035549   -0.00000330
         4      1.68775634    1.68776269   -0.00000635
         5      0.02493460    0.02492900    0.00000560
         6     -0.09588982   -0.09588640   -0.00000342
     Cycle:   2  Maximum deviation:   0.00000705

     Iterative generation of Cartesian Coordinates
     Internal   True Value     Estimate     Difference
         1      4.35298509    4.35298509    0.00000000
         2      0.10541619    0.10541619   -0.00000000
         3     -0.02035879   -0.02035879    0.00000000
         4      1.68775634    1.68775634   -0.00000000
         5      0.02493460    0.02493460   -0.00000000
         6     -0.09588982   -0.09588982    0.00000000
     Cycle:   3  Maximum deviation:   0.00000000

 Displacement from previous Coordinates is:  0.018175
 ----------------------------------------------------------------
             Standard Nuclear Orientation (Angstroms)
    I     Atom           X                Y                Z
 ----------------------------------------------------------------
    1      O       0.0219076979    -1.1607502039    -0.0604564478
    2      H      -0.0251390378    -0.1858225276     0.0454489537
    3      H       0.2648423772    -1.6143659423     0.7722284257
    4      H      -0.7903288697    -1.5308863423    -0.4622980643
 ----------------------------------------------------------------
 Nuclear Repulsion Energy =          13.93679378 hartrees
 There are        5 alpha and        5 beta electrons
 Applying Cartesian multipole field
    Component          Value
    ---------          -----
     (2,0,0)        1.00000E-11
     (0,2,0)        2.00000E-11
     (0,0,2)       -3.00000E-11
 Nucleus-field energy     =     0.0000000011 hartrees
 Requested basis set is aug-cc-pVTZ
 There are 41 shells and 115 basis functions
 A cutoff of  1.0D-14 yielded    861 shell pairs
 There are      6841 function pairs (      8779 Cartesian)
 Smallest overlap matrix eigenvalue = 2.55E-04
 Guess MOs from SCF MO coefficient file

 -----------------------------------------------------------------------
  General SCF calculation program by
  Eric Jon Sundstrom, Paul Horn, Yuezhi Mao, Dmitri Zuev, Alec White,
  David Stuck, Shaama M.S., Shane Yost, Joonho Lee, David Small,
  Daniel Levine, Susi Lehtola, Hugh Burton, Evgeny Epifanovsky,
  Bang C. Huynh
 -----------------------------------------------------------------------
 Exchange:     0.1500 Hartree-Fock + 1.0000 wB97M-V + LR-HF
 Correlation:  1.0000 wB97M-V
 Using Euler-Maclaurin-Lebedev (99,590) quadrature formula
 Nonlocal Correlation:  VV10 with C = 0.0100 and b = 6.00 and scale = 1.00000
 Grid used for NLC:  SG-1 standard quadrature
 using 4 threads for integral computing
 -------------------------------------------------------
 OpenMP Integral computing Module                
 Release: version 1.0, May 2013, Q-Chem Inc. Pittsburgh 
 -------------------------------------------------------
 using 4 threads for integral computing
 -------------------------------------------------------
 OpenMP Integral computing Module                
 Release: version 1.0, May 2013, Q-Chem Inc. Pittsburgh 
 -------------------------------------------------------
 -------------------------------------------------------
 OpenMP BLAS3 based DFT computing Module                
 Release: version 1.0, May 2013, Q-Chem Inc. Pittsburgh 
 -------------------------------------------------------
 -------------------------------------------------------
 OpenMP BLAS3 based DFT computing Module                
 Release: version 1.0, May 2013, Q-Chem Inc. Pittsburgh 
 -------------------------------------------------------
 -------------------------------------------------------
 OpenMP BLAS3 based DFT computing Module                
 Release: version 1.0, May 2013, Q-Chem Inc. Pittsburgh 
 -------------------------------------------------------
 A restricted SCF calculation will be
 performed using DIIS
 SCF converges when DIIS error is below 1.0e-08
 ---------------------------------------
  Cycle       Energy         DIIS error
 ---------------------------------------
    1     -76.7031094215      1.65e-04  
    2     -76.7031368158      3.91e-05  
    3     -76.7031378558      2.40e-05  
    4     -76.7031383963      4.58e-06  
    5     -76.7031384201      5.16e-07  
    6     -76.7031384208      6.49e-08  
    7     -76.7031384208      9.83e-09  Convergence criterion met
 ---------------------------------------
 SCF time:   CPU 23.98s  wall 6.00s 
 SCF   energy in the final basis set =      -76.7031384208
 Total energy in the final basis set =      -76.7031384208
 
 --------------------------------------------------------------
 
                    Orbital Energies (a.u.)
 --------------------------------------------------------------
 
 Alpha MOs
 -- Occupied --
-19.7683  -1.5790  -1.0456  -1.0449  -0.8552
 -- Virtual --
 -0.2144  -0.1336  -0.1333  -0.0863  -0.0620  -0.0561  -0.0558  -0.0200
 -0.0200   0.0060   0.0060   0.0121   0.1215   0.1299   0.1530   0.1531
  0.1605   0.1613   0.1613   0.2660   0.2662   0.3604   0.3642   0.3643
  0.4154   0.4940   0.4940   0.5357   0.5779   0.6000   0.6183   0.6185
  0.6878   0.6881   0.6973   0.7182   0.7183   0.7760   0.8476   0.8514
  0.8517   0.8938   0.8940   0.9101   0.9106   1.1925   1.1926   1.2664
  1.3006   1.3743   1.3749   1.4079   1.5780   1.5829   1.5844   1.7900
  1.8777   1.8783   1.9760   2.0553   2.0560   2.2125   2.2143   2.2467
  2.3562   2.3568   2.4544   3.2158   3.2183   3.2712   3.4862   3.4873
  3.5367   3.8088   3.8092   3.8504   3.8550   3.8556   4.0039   4.0055
  4.0135   4.1116   4.1141   4.1172   4.1567   4.4865   4.4900   4.5852
  4.6001   4.6031   4.6496   4.7637   5.1207   5.3129   5.3174   5.8544
  5.8580   6.2753   6.5502   6.5543   6.6655   6.6658   6.7897   6.8758
  6.9943   7.2720   7.2742   7.9850   7.9958  16.1951
 --------------------------------------------------------------
 
          Ground-State Mulliken Net Atomic Charges

     Atom                 Charge (a.u.)
  ----------------------------------------
      1 O                     0.154694
      2 H                     0.284396
      3 H                     0.280433
      4 H                     0.280478
  ----------------------------------------
  Sum of atomic charges =     1.000000

 -----------------------------------------------------------------
                    Cartesian Multipole Moments
 -----------------------------------------------------------------
    Charge (ESU x 10^10)
                 4.8032
    Dipole Moment (Debye)
         X      -1.2249      Y      -5.2470      Z       0.8682
       Tot       5.4575
    Quadrupole Moments (Debye-Ang)
        XX      -4.4861     XY       1.8861     YY       3.0875
        XZ       1.7551     YZ      -1.4252     ZZ      -4.0938
    Octopole Moments (Debye-Ang^2)
       XXX      -1.0107    XXY       4.3993    XYY      -2.8350
       YYY       4.9832    XXZ      -0.4956    XYZ      -2.6893
       YYZ       2.6944    XZZ       0.0683    YZZ       3.7053
       ZZZ       1.5276
    Hexadecapole Moments (Debye-Ang^3)
      XXXX      -4.3397   XXXY       1.6632   XXYY      -5.7978
      XYYY       4.0896   YYYY     -27.0045   XXXZ       0.5138
      XXYZ       0.8613   XYYZ       4.0973   YYYZ      -4.9400
      XXZZ      -1.3104   XYZZ      -0.1411   YYZZ      -4.5617
      XZZZ       0.3989   YZZZ      -2.2747   ZZZZ      -4.4408
 -----------------------------------------------------------------
 Calculating analytic gradient of the SCF energy
 Gradient of SCF Energy
            1           2           3           4
    1   0.0002034  -0.0001341  -0.0000245  -0.0000448
    2  -0.0025170   0.0026094  -0.0000523  -0.0000400
    3  -0.0002810   0.0002622   0.0000096   0.0000091
 Max gradient component =       2.609E-03
 RMS gradient           =       1.055E-03
 Gradient time:  CPU 12.29 s  wall 7.13 s
 Geometry Optimization Parameters
   NAtoms,    NIC,     NZ,  NCons,   NDum,   NFix, NCnnct, MaxDiis
        4      17       0       0       0       0       0       0

 Cartesian Hessian Update
 Hessian updated using BFGS update


** GEOMETRY OPTIMIZATION IN DELOCALIZED INTERNAL COORDINATES **
   Searching for a Minimum

   Optimization Cycle:   5

                       Coordinates (Angstroms)
     ATOM                X               Y               Z
      1  O         0.0219076979   -1.1607502039   -0.0604564478
      2  H        -0.0251390378   -0.1858225276    0.0454489537
      3  H         0.2648423772   -1.6143659423    0.7722284257
      4  H        -0.7903288697   -1.5308863423   -0.4622980643
   Point Group: c1    Number of degrees of freedom:     6


   Energy is    -76.703138421


                       Cartesian Gradient (au)
     ATOM              X           Y           Z
    1  O           0.000203   -0.002517   -0.000281
    2  H          -0.000134    0.002609    0.000262
    3  H          -0.000025   -0.000052    0.000010
    4  H          -0.000045   -0.000040    0.000009
 Hessian updated using BFGS update

   Hessian Matrix


     0.223491    0.000503   -0.008431    0.130468    0.003828   -0.001018
     0.000503    0.272145   -0.000083    0.005529   -0.172119   -0.006108
    -0.008431   -0.000083    0.273010    0.017206    0.006671   -0.152024
     0.130468    0.005529    0.017206    0.448680    0.001995   -0.041421
     0.003828   -0.172119    0.006671    0.001995    0.424082    0.002028
    -0.001018   -0.006108   -0.152024   -0.041421    0.002028    0.362622

  6 Hessian modes will be used to form the next step
  Hessian Eigenvalues:
     0.157508    0.160010    0.163123    0.452666    0.534087    0.536636

  Hessian Eigenvectors:


     0.375589    0.128654    0.811868    0.288672    0.305848   -0.079854
    -0.235656    0.803661   -0.019130    0.000813   -0.136697   -0.528717
     0.711769    0.203787   -0.298472   -0.516580    0.300443   -0.075158
    -0.133943   -0.066432   -0.396913    0.478961    0.737355   -0.216818
    -0.178141    0.516084   -0.011483   -0.007384    0.248031    0.800136
     0.497100    0.159033   -0.306181    0.648347   -0.438513    0.145620

 Minimum search - taking simple RFO step
 Searching for Lamda that Minimizes Along All modes
 in iterative cycle:  Lamda =   0.00000000 TEMP =  -0.00001551
 in iterative cycle:  Lamda =  -0.00001551 TEMP =  -0.00001551
 Value Taken    Lamda =  -0.00001551
 Step Taken.  Stepsize is  0.005995


     Parameter Values and Displacements in Internal Coordinates
  Coordinate  Current Value    Gradient  Displacement   New Value
       1           4.352985     0.000580    -0.000346     4.352639
       2           0.105416     0.000046    -0.000246     0.105171
       3          -0.020359    -0.001332     0.003147    -0.017211
       4           1.687756     0.001496    -0.003675     1.684081
       5           0.024935     0.000003    -0.000118     0.024816
       6          -0.095890     0.001598    -0.003511    -0.099401

                             Maximum     Tolerance    Cnvgd?
         Gradient           0.001598      0.000300      NO
         Displacement       0.003675      0.001200      NO
         Energy change     -0.000142      0.000001      NO


 New Cartesian Coordinates Obtained by Inverse Iteration

     Iterative generation of Cartesian Coordinates
     Internal   True Value     Estimate     Difference
         1      4.35263903    4.35298509   -0.00034606
         2      0.10517059    0.10541619   -0.00024560
         3     -0.01721142   -0.02035879    0.00314737
         4      1.68408143    1.68775634   -0.00367490
         5      0.02481640    0.02493460   -0.00011820
         6     -0.09940113   -0.09588982   -0.00351132
     Cycle:   1  Maximum deviation:   0.00367490

     Iterative generation of Cartesian Coordinates
     Internal   True Value     Estimate     Difference
         1      4.35263903    4.35263886    0.00000017
         2      0.10517059    0.10517003    0.00000056
         3     -0.01721142   -0.01721170    0.00000028
         4      1.68408143    1.68408251   -0.00000108
         5      0.02481640    0.02481608    0.00000032
         6     -0.09940113   -0.09940212    0.00000098
     Cycle:   2  Maximum deviation:   0.00000108

     Iterative generation of Cartesian Coordinates
     Internal   True Value     Estimate     Difference
         1      4.35263903    4.35263903   -0.00000000
         2      0.10517059    0.10517059   -0.00000000
         3     -0.01721142   -0.01721142   -0.00000000
         4      1.68408143    1.68408143   -0.00000000
         5      0.02481640    0.02481640   -0.00000000
         6     -0.09940113   -0.09940113   -0.00000000
     Cycle:   3  Maximum deviation:   0.00000000

 Displacement from previous Coordinates is:  0.004993
 ----------------------------------------------------------------
             Standard Nuclear Orientation (Angstroms)
    I     Atom           X                Y                Z
 ----------------------------------------------------------------
    1      O       0.0214742868    -1.1598596024    -0.0600988800
    2      H      -0.0251617149    -0.1880068421     0.0454237618
    3      H       0.2652169536    -1.6136780505     0.7722337278
    4      H      -0.7902473579    -1.5302805210    -0.4626357423
 ----------------------------------------------------------------
 Nuclear Repulsion Energy =          13.95153290 hartrees
 There are        5 alpha and        5 beta electrons
 Applying Cartesian multipole field
    Component          Value
    ---------          -----
     (2,0,0)        1.00000E-11
     (0,2,0)        2.00000E-11
     (0,0,2)       -3.00000E-11
 Nucleus-field energy     =     0.0000000011 hartrees
 Requested basis set is aug-cc-pVTZ
 There are 41 shells and 115 basis functions
 A cutoff of  1.0D-14 yielded    861 shell pairs
 There are      6841 function pairs (      8779 Cartesian)
 Smallest overlap matrix eigenvalue = 2.54E-04
 Guess MOs from SCF MO coefficient file

 -----------------------------------------------------------------------
  General SCF calculation program by
  Eric Jon Sundstrom, Paul Horn, Yuezhi Mao, Dmitri Zuev, Alec White,
  David Stuck, Shaama M.S., Shane Yost, Joonho Lee, David Small,
  Daniel Levine, Susi Lehtola, Hugh Burton, Evgeny Epifanovsky,
  Bang C. Huynh
 -----------------------------------------------------------------------
 Exchange:     0.1500 Hartree-Fock + 1.0000 wB97M-V + LR-HF
 Correlation:  1.0000 wB97M-V
 Using Euler-Maclaurin-Lebedev (99,590) quadrature formula
 Nonlocal Correlation:  VV10 with C = 0.0100 and b = 6.00 and scale = 1.00000
 Grid used for NLC:  SG-1 standard quadrature
 using 4 threads for integral computing
 -------------------------------------------------------
 OpenMP Integral computing Module                
 Release: version 1.0, May 2013, Q-Chem Inc. Pittsburgh 
 -------------------------------------------------------
 using 4 threads for integral computing
 -------------------------------------------------------
 OpenMP Integral computing Module                
 Release: version 1.0, May 2013, Q-Chem Inc. Pittsburgh 
 -------------------------------------------------------
 -------------------------------------------------------
 OpenMP BLAS3 based DFT computing Module                
 Release: version 1.0, May 2013, Q-Chem Inc. Pittsburgh 
 -------------------------------------------------------
 -------------------------------------------------------
 OpenMP BLAS3 based DFT computing Module                
 Release: version 1.0, May 2013, Q-Chem Inc. Pittsburgh 
 -------------------------------------------------------
 -------------------------------------------------------
 OpenMP BLAS3 based DFT computing Module                
 Release: version 1.0, May 2013, Q-Chem Inc. Pittsburgh 
 -------------------------------------------------------
 A restricted SCF calculation will be
 performed using DIIS
 SCF converges when DIIS error is below 1.0e-08
 ---------------------------------------
  Cycle       Energy         DIIS error
 ---------------------------------------
    1     -76.7031430127      5.13e-05  
    2     -76.7031457596      1.02e-05  
    3     -76.7031458491      5.15e-06  
    4     -76.7031458738      1.73e-06  
    5     -76.7031458770      1.96e-07  
    6     -76.7031458771      2.87e-08  
    7     -76.7031458771      4.37e-09  Convergence criterion met
 ---------------------------------------
 SCF time:   CPU 23.95s  wall 6.00s 
 SCF   energy in the final basis set =      -76.7031458771
 Total energy in the final basis set =      -76.7031458771
 
 --------------------------------------------------------------
 
                    Orbital Energies (a.u.)
 --------------------------------------------------------------
 
 Alpha MOs
 -- Occupied --
-19.7683  -1.5796  -1.0459  -1.0459  -0.8555
 -- Virtual --
 -0.2142  -0.1334  -0.1333  -0.0863  -0.0619  -0.0558  -0.0558  -0.0200
 -0.0200   0.0060   0.0060   0.0122   0.1216   0.1300   0.1531   0.1531
  0.1612   0.1612   0.1613   0.2660   0.2660   0.3605   0.3643   0.3643
  0.4155   0.4942   0.4942   0.5359   0.5781   0.6000   0.6184   0.6184
  0.6881   0.6881   0.6974   0.7184   0.7184   0.7763   0.8480   0.8517
  0.8517   0.8942   0.8942   0.9104   0.9104   1.1926   1.1926   1.2655
  1.3011   1.3748   1.3749   1.4070   1.5795   1.5844   1.5845   1.7905
  1.8778   1.8778   1.9758   2.0565   2.0566   2.2131   2.2132   2.2475
  2.3566   2.3566   2.4553   3.2190   3.2191   3.2728   3.4877   3.4878
  3.5372   3.8100   3.8100   3.8511   3.8567   3.8567   4.0059   4.0060
  4.0131   4.1137   4.1139   4.1182   4.1592   4.4904   4.4906   4.5887
  4.6034   4.6034   4.6531   4.7658   5.1221   5.3191   5.3194   5.8557
  5.8560   6.2779   6.5544   6.5547   6.6649   6.6650   6.7932   6.8810
  6.9977   7.2749   7.2751   7.9951   7.9957  16.2362
 --------------------------------------------------------------
 
          Ground-State Mulliken Net Atomic Charges

     Atom                 Charge (a.u.)
  ----------------------------------------
      1 O                     0.158622
      2 H                     0.280307
      3 H                     0.280535
      4 H                     0.280536
  ----------------------------------------
  Sum of atomic charges =     1.000000

 -----------------------------------------------------------------
                    Cartesian Multipole Moments
 -----------------------------------------------------------------
    Charge (ESU x 10^10)
                 4.8032
    Dipole Moment (Debye)
         X      -1.2239      Y      -5.2525      Z       0.8672
       Tot       5.4625
    Quadrupole Moments (Debye-Ang)
        XX      -4.4827     XY       1.8840     YY       3.0878
        XZ       1.7571     YZ      -1.4235     ZZ      -4.0896
    Octopole Moments (Debye-Ang^2)
       XXX      -1.0050    XXY       4.3929    XYY      -2.8286
       YYY       4.9760    XXZ      -0.4975    XYZ      -2.6911
       YYZ       2.6885    XZZ       0.0702    YZZ       3.6980
       ZZZ       1.5226
    Hexadecapole Moments (Debye-Ang^3)
      XXXX      -4.3355   XXXY       1.6555   XXYY      -5.7844
      XYYY       4.0746   YYYY     -26.9502   XXXZ       0.5138
      XXYZ       0.8634   XYYZ       4.0985   YYYZ      -4.9248
      XXZZ      -1.3076   XYZZ      -0.1433   YYZZ      -4.5476
      XZZZ       0.3995   YZZZ      -2.2672   ZZZZ      -4.4353
 -----------------------------------------------------------------
 Calculating analytic gradient of the SCF energy
 Gradient of SCF Energy
            1           2           3           4
    1   0.0000457  -0.0000094  -0.0000014  -0.0000349
    2   0.0001207  -0.0001251   0.0000021   0.0000023
    3  -0.0000354   0.0000021   0.0000362  -0.0000029
 Max gradient component =       1.251E-04
 RMS gradient           =       5.492E-05
 Gradient time:  CPU 12.39 s  wall 7.17 s
 Geometry Optimization Parameters
   NAtoms,    NIC,     NZ,  NCons,   NDum,   NFix, NCnnct, MaxDiis
        4      17       0       0       0       0       0       0

 Cartesian Hessian Update
 Hessian updated using BFGS update


** GEOMETRY OPTIMIZATION IN DELOCALIZED INTERNAL COORDINATES **
   Searching for a Minimum

   Optimization Cycle:   6

                       Coordinates (Angstroms)
     ATOM                X               Y               Z
      1  O         0.0214742868   -1.1598596024   -0.0600988800
      2  H        -0.0251617149   -0.1880068421    0.0454237618
      3  H         0.2652169536   -1.6136780505    0.7722337278
      4  H        -0.7902473579   -1.5302805210   -0.4626357423
   Point Group: c1    Number of degrees of freedom:     6


   Energy is    -76.703145877


                       Cartesian Gradient (au)
     ATOM              X           Y           Z
    1  O           0.000046    0.000121   -0.000035
    2  H          -0.000009   -0.000125    0.000002
    3  H          -0.000001    0.000002    0.000036
    4  H          -0.000035    0.000002   -0.000003
 Hessian updated using BFGS update

   Hessian Matrix


     0.228559    0.000833   -0.016445    0.135837    0.003842    0.007802
     0.000833    0.272166   -0.000562    0.005791   -0.172118   -0.005593
    -0.016445   -0.000562    0.283590    0.013169    0.006654   -0.162999
     0.135837    0.005791    0.013169    0.444894    0.001998   -0.038399
     0.003842   -0.172118    0.006654    0.001998    0.424082    0.002045
     0.007802   -0.005593   -0.162999   -0.038399    0.002045    0.373751

  6 Hessian modes will be used to form the next step
  Hessian Eigenvalues:
     0.157205    0.159997    0.161494    0.477849    0.533893    0.536603

  Hessian Eigenvectors:


     0.509065    0.169950    0.714729    0.345589    0.278716   -0.063392
    -0.205157    0.810736   -0.048698    0.002277   -0.118819   -0.533032
     0.661828    0.146353   -0.414383   -0.488405    0.353097   -0.075064
    -0.206790   -0.093817   -0.378234    0.541163    0.692735   -0.180655
[...]
 Nuclear Repulsion Energy =          13.94950047 hartrees
 There are        5 alpha and        5 beta electrons

                       Distance Matrix (Angstroms)
             O (  1)   H (  2)   H (  3)
   H (  2)  0.978677
   H (  3)  0.978846  1.626380
   H (  4)  0.979258  1.626713  1.627370
 
 Requested basis set is aug-cc-pVTZ
 There are 41 shells and 115 basis functions
 A cutoff of  1.0D-14 yielded    861 shell pairs
 There are      6841 function pairs (      8779 Cartesian)
 Smallest overlap matrix eigenvalue = 2.54E-04
 Guess MOs from SCF MO coefficient file

 -----------------------------------------------------------------------
  General SCF calculation program by
  Eric Jon Sundstrom, Paul Horn, Yuezhi Mao, Dmitri Zuev, Alec White,
  David Stuck, Shaama M.S., Shane Yost, Joonho Lee, David Small,
  Daniel Levine, Susi Lehtola, Hugh Burton, Evgeny Epifanovsky,
  Bang C. Huynh
 -----------------------------------------------------------------------
 Exchange:     0.1500 Hartree-Fock + 1.0000 wB97M-V + LR-HF
 Correlation:  1.0000 wB97M-V
 Using Euler-Maclaurin-Lebedev (99,590) quadrature formula
 Nonlocal Correlation:  VV10 with C = 0.0100 and b = 6.00 and scale = 1.00000
 Grid used for NLC:  SG-1 standard quadrature
 using 4 threads for integral computing
 -------------------------------------------------------
 OpenMP Integral computing Module                
 Release: version 1.0, May 2013, Q-Chem Inc. Pittsburgh 
 -------------------------------------------------------
 using 4 threads for integral computing
 -------------------------------------------------------
 OpenMP Integral computing Module                
 Release: version 1.0, May 2013, Q-Chem Inc. Pittsburgh 
 -------------------------------------------------------
 -------------------------------------------------------
 OpenMP BLAS3 based DFT computing Module                
 Release: version 1.0, May 2013, Q-Chem Inc. Pittsburgh 
 -------------------------------------------------------
 -------------------------------------------------------
 OpenMP BLAS3 based DFT computing Module                
 Release: version 1.0, May 2013, Q-Chem Inc. Pittsburgh 
 -------------------------------------------------------
 -------------------------------------------------------
 OpenMP BLAS3 based DFT computing Module                
 Release: version 1.0, May 2013, Q-Chem Inc. Pittsburgh 
 -------------------------------------------------------
 A restricted SCF calculation will be
 performed using DIIS
 SCF converges when DIIS error is below 1.0e-08
 ---------------------------------------
  Cycle       Energy         DIIS error
 ---------------------------------------
    1     -76.7031450515      2.07e-05  
    2     -76.7031456354      5.67e-06  
    3     -76.7031456639      4.05e-06  
    4     -76.7031456805      4.99e-07  
    5     -76.7031456810      1.11e-07  
    6     -76.7031456810      1.40e-08  
    7     -76.7031456810      1.95e-09  Convergence criterion met
 ---------------------------------------
 SCF time:   CPU 23.94s  wall 6.00s 
 SCF   energy in the final basis set =      -76.7031456810
 Total energy in the final basis set =      -76.7031456810
 
 --------------------------------------------------------------
 
                    Orbital Energies (a.u.)
 --------------------------------------------------------------
 
 Alpha MOs
 -- Occupied --
-19.7683  -1.5795  -1.0459  -1.0458  -0.8554
 -- Virtual --
 -0.2143  -0.1334  -0.1333  -0.0863  -0.0619  -0.0558  -0.0558  -0.0200
 -0.0200   0.0060   0.0061   0.0122   0.1216   0.1299   0.1531   0.1531
  0.1611   0.1612   0.1613   0.2659   0.2660   0.3605   0.3643   0.3643
  0.4154   0.4942   0.4942   0.5360   0.5781   0.6000   0.6183   0.6184
  0.6881   0.6881   0.6974   0.7184   0.7184   0.7763   0.8480   0.8517
  0.8518   0.8941   0.8942   0.9105   0.9106   1.1926   1.1927   1.2656
  1.3009   1.3746   1.3750   1.4068   1.5794   1.5842   1.5845   1.7905
  1.8776   1.8777   1.9761   2.0564   2.0567   2.2130   2.2134   2.2475
  2.3565   2.3566   2.4554   3.2185   3.2189   3.2727   3.4877   3.4880
  3.5368   3.8098   3.8100   3.8504   3.8566   3.8567   4.0058   4.0062
  4.0130   4.1131   4.1141   4.1177   4.1586   4.4899   4.4905   4.5892
  4.6028   4.6033   4.6527   4.7660   5.1217   5.3181   5.3193   5.8552
  5.8562   6.2780   6.5540   6.5546   6.6644   6.6648   6.7931   6.8809
  6.9978   7.2739   7.2743   7.9934   7.9956  16.2315
 --------------------------------------------------------------
 
          Ground-State Mulliken Net Atomic Charges

     Atom                 Charge (a.u.)
  ----------------------------------------
      1 O                     0.158090
      2 H                     0.280306
      3 H                     0.280522
      4 H                     0.281081
  ----------------------------------------
  Sum of atomic charges =     1.000000

 -----------------------------------------------------------------
                    Cartesian Multipole Moments
 -----------------------------------------------------------------
    Charge (ESU x 10^10)
                 4.8032
    Dipole Moment (Debye)
         X      -1.2242      Y      -5.2528      Z       0.8649
       Tot       5.4625
    Quadrupole Moments (Debye-Ang)
        XX      -4.4832     XY       1.8843     YY       3.0881
        XZ       1.7595     YZ      -1.4197     ZZ      -4.0872
    Octopole Moments (Debye-Ang^2)
       XXX      -1.0049    XXY       4.3934    XYY      -2.8289
       YYY       4.9761    XXZ      -0.4989    XYZ      -2.6949
       YYZ       2.6829    XZZ       0.0681    YZZ       3.6941
       ZZZ       1.5221
    Hexadecapole Moments (Debye-Ang^3)
      XXXX      -4.3368   XXXY       1.6553   XXYY      -5.7851
      XYYY       4.0746   YYYY     -26.9522   XXXZ       0.5148
      XXYZ       0.8657   XYYZ       4.1040   YYYZ      -4.9169
      XXZZ      -1.3063   XYZZ      -0.1401   YYZZ      -4.5420
      XZZZ       0.4006   YZZZ      -2.2662   ZZZZ      -4.4357
 -----------------------------------------------------------------
 Calculating analytic gradient of the SCF energy
 Gradient of SCF Energy
            1           2           3           4
    1   0.0003075  -0.0000092   0.0000493  -0.0003476
    2   0.0001919  -0.0001166   0.0000293  -0.0001046
    3   0.0001468   0.0000027   0.0000553  -0.0002048
 Max gradient component =       3.476E-04
 RMS gradient           =       1.700E-04
 Gradient time:  CPU 12.03 s  wall 6.60 s
Dipole drv :
gprntSymmMtrx error report: 
 Final Hessian.
            1           2           3           4           5           6
    1   0.4173234   0.0797028   0.2889923  -0.0399085   0.0120028  -0.0314100
    2   0.0797028   0.7305541  -0.0693484   0.0431215  -0.4538462  -0.0622676
    3   0.2889923  -0.0693484   0.4974353  -0.0293109  -0.0356680  -0.0549794
    4  -0.0399085   0.0431215  -0.0293109   0.0338662  -0.0170159   0.0226646
    5   0.0120028  -0.4538462  -0.0356680  -0.0170159   0.4720574   0.0422539
    6  -0.0314100  -0.0622676  -0.0549794   0.0226646   0.0422539   0.0452265
    7  -0.0507825   0.0168656  -0.0850949  -0.0003774   0.0040303   0.0014007
    8   0.0296585  -0.1513671   0.1500600   0.0083341  -0.0108962   0.0349483
    9  -0.1189136   0.1693528  -0.3461336   0.0067513  -0.0020963   0.0100641
   10  -0.3266327  -0.1396897  -0.1745864   0.0064192   0.0009827   0.0073447
   11  -0.1213649  -0.1253380  -0.0450419  -0.0344373  -0.0073153  -0.0149369
   12  -0.1386666  -0.0377357  -0.0963242  -0.0001064  -0.0044912  -0.0003102
            7           8           9          10          11          12
    1  -0.0507825   0.0296585  -0.1189136  -0.3266327  -0.1213649  -0.1386666
    2   0.0168656  -0.1513671   0.1693528  -0.1396897  -0.1253380  -0.0377357
    3  -0.0850949   0.1500600  -0.3461336  -0.1745864  -0.0450419  -0.0963242
    4  -0.0003774   0.0083341   0.0067513   0.0064192  -0.0344373  -0.0001064
    5   0.0040303  -0.0108962  -0.0020963   0.0009827  -0.0073153  -0.0044912
    6   0.0014007   0.0349483   0.0100641   0.0073447  -0.0149369  -0.0003102
    7   0.0561685  -0.0386265   0.1105609  -0.0050083   0.0177307  -0.0268674
    8  -0.0386265   0.1483691  -0.1706076   0.0006337   0.0138927  -0.0144003
    9   0.1105609  -0.1706076   0.3461584   0.0016012   0.0033520  -0.0100886
   10  -0.0050083   0.0006337   0.0016012   0.3252222   0.1380715   0.1656405
   11   0.0177307   0.0138927   0.0033520   0.1380715   0.1187597   0.0566269
   12  -0.0268674  -0.0144003  -0.0100886   0.1656405   0.0566269   0.1067235
 ----------------------------------------------------------------
             Standard Nuclear Orientation (Angstroms)
    I     Atom           X                Y                Z
 ----------------------------------------------------------------
    1      O       0.0214742868    -1.1598596024    -0.0600988800
    2      H      -0.0251617149    -0.1880068421     0.0454237618
    3      H       0.2652169536    -1.6136780505     0.7722337278
    4      H      -0.7902473579    -1.5302805210    -0.4626357423
 ----------------------------------------------------------------
 Nuclear Repulsion Energy =          13.95153290 hartrees
 There are        5 alpha and        5 beta electrons
 old dipole drv.
            1           2           3           4           5           6
    1  -0.3304045  -0.0192218  -0.0695987   0.3943173   0.0316319  -0.0370240
    2  -0.0191706  -0.4056477   0.0167006   0.0216995   0.5874354  -0.0024051
    3  -0.0696027   0.0167414  -0.3497141  -0.0376802  -0.0108939   0.3799920
            7           8           9          10          11          12
    1   0.4403603  -0.0712317   0.0500025   0.4957324   0.0588268   0.0566099
    2  -0.0671397   0.4196104  -0.0865207   0.0646150   0.3985806   0.0722283
    3   0.0392245  -0.0804225   0.5020305   0.0680544   0.0745677   0.4677069
 New transposed dipole drv.
            1           2           3
    1  -0.3304045  -0.0191706  -0.0696027
    2  -0.0192218  -0.4056477   0.0167414
    3  -0.0695987   0.0167006  -0.3497141
    4   0.3943173   0.0216995  -0.0376802
    5   0.0316319   0.5874354  -0.0108939
    6  -0.0370240  -0.0024051   0.3799920
    7   0.4403603  -0.0671397   0.0392245
    8  -0.0712317   0.4196104  -0.0804225
    9   0.0500025  -0.0865207   0.5020305
   10   0.4957324   0.0646150   0.0680544
   11   0.0588268   0.3985806   0.0745677
   12   0.0566099   0.0722283   0.4677069
FINAL TENSOR RESULT:
Order 2, Length 12
    Atom      X          Y          Z
     1 Order 1, Length 12
    Atom      X          Y          Z
     1    4.173233502276237e-01   7.970282086330796e-02   2.889923492363721e-01
     2   -3.990848649775084e-02   1.200282159812902e-02  -3.141002225042092e-02
     3   -5.078249090262404e-02   2.965854322761605e-02  -1.189136235116625e-01
     4   -3.266327303066223e-01  -1.213648871139593e-01  -1.386665779112229e-01

Order 1, Length 12
    Atom      X          Y          Z
     1    7.970282086330796e-02   7.305541499157742e-01  -6.934837013213382e-02
     2    4.312146728888831e-02  -4.538461765011876e-01  -6.226759214185745e-02
     3    1.686563938499041e-02  -1.513670634510683e-01   1.693527705196413e-01
     4   -1.396897110401498e-01  -1.253380302081651e-01  -3.773567163187549e-02

Order 1, Length 12
    Atom      X          Y          Z
     1    2.889923492363721e-01  -6.934837013213382e-02   4.974352665119487e-01
     2   -2.931089572877491e-02  -3.566801428108940e-02  -5.497940707793107e-02
     3   -8.509492871590452e-02   1.500599671459998e-01  -3.461335562408611e-01
     4   -1.745863995472680e-01  -4.504188669989198e-02  -9.632415469264338e-02


     2 Order 1, Length 12
    Atom      X          Y          Z
     1   -3.990848649775084e-02   4.312146728888831e-02  -2.931089572877491e-02
     2    3.386621963469538e-02  -1.701587383413644e-02   2.266463957828825e-02
     3   -3.773676406636804e-04   8.334074384295329e-03   6.751300385540287e-03
     4    6.419222302423089e-03  -3.443732112595012e-02  -1.064068764593773e-04

Order 1, Length 12
    Atom      X          Y          Z
     1    1.200282159812902e-02  -4.538461765011876e-01  -3.566801428108940e-02
     2   -1.701587383413644e-02   4.720574103582890e-01   4.225390602589797e-02
     3    4.030252987169473e-03  -1.089622081007146e-02  -2.096348276487449e-03
     4    9.827488274774475e-04  -7.315340402644796e-03  -4.491182339863085e-03

Order 1, Length 12
    Atom      X          Y          Z
     1   -3.141002225042092e-02  -6.226759214185745e-02  -5.497940707793107e-02
     2    2.266463957828825e-02   4.225390602589797e-02   4.522645537030628e-02
     3    1.400705889612742e-03   3.494829576188483e-02   1.006407563610035e-02
     4    7.344747604700030e-03  -1.493688815848297e-02  -3.102177900417197e-04


     3 Order 1, Length 12
    Atom      X          Y          Z
     1   -5.078249090262404e-02   1.686563938499041e-02  -8.509492871590452e-02
     2   -3.773676406636804e-04   4.030252987169473e-03   1.400705889612742e-03
     3    5.616849765122560e-02  -3.862645337716533e-02   1.105608781932073e-01
     4   -5.008274440822425e-03   1.773067544657416e-02  -2.686738303490140e-02

Order 1, Length 12
    Atom      X          Y          Z
     1    2.965854322761605e-02  -1.513670634510683e-01   1.500599671459998e-01
     2    8.334074384295329e-03  -1.089622081007146e-02   3.494829576188483e-02
     3   -3.862645337716533e-02   1.483691353284484e-01  -1.706076323826779e-01
     4    6.336677343197574e-04   1.389265218651657e-02  -1.440029981001949e-02

Order 1, Length 12
    Atom      X          Y          Z
     1   -1.189136235116625e-01   1.693527705196413e-01  -3.461335562408611e-01
     2    6.751300385540287e-03  -2.096348276487449e-03   1.006407563610035e-02
     3    1.105608781932073e-01  -1.706076323826779e-01   3.461583745110624e-01
     4    1.601159339482092e-03   3.352034077407254e-03  -1.008855714420179e-02


     4 Order 1, Length 12
    Atom      X          Y          Z
     1   -3.266327303066223e-01  -1.396897110401498e-01  -1.745863995472680e-01
     2    6.419222302423089e-03   9.827488274774475e-04   7.344747604700030e-03
     3   -5.008274440822425e-03   6.336677343197574e-04   1.601159339482092e-03
     4    3.252221874467965e-01   1.380715347530474e-01   1.656404573422010e-01

Order 1, Length 12
    Atom      X          Y          Z
     1   -1.213648871139593e-01  -1.253380302081651e-01  -4.504188669989198e-02
     2   -3.443732112595012e-02  -7.315340402644796e-03  -1.493688815848297e-02
     3    1.773067544657416e-02   1.389265218651657e-02   3.352034077407254e-03
     4    1.380715347530474e-01   1.187596627779918e-01   5.662691232436220e-02

Order 1, Length 12
    Atom      X          Y          Z
     1   -1.386665779112229e-01  -3.773567163187549e-02  -9.632415469264338e-02
     2   -1.064068764593773e-04  -4.491182339863085e-03  -3.102177900417197e-04
     3   -2.686738303490140e-02  -1.440029981001949e-02  -1.008855714420179e-02
     4    1.656404573422010e-01   5.662691232436220e-02   1.067235382236510e-01




 # Finishing finite difference calculation for IDERIV #
 ######################################################
 ######################################################
 Requested basis set is aug-cc-pVTZ
 There are 41 shells and 115 basis functions
 **********************************************************************
 **                                                                  **
 **                       VIBRATIONAL ANALYSIS                       **
 **                       --------------------                       **
 **                                                                  **
 **        VIBRATIONAL FREQUENCIES (CM**-1) AND NORMAL MODES         **
 **     FORCE CONSTANTS (mDYN/ANGSTROM) AND REDUCED MASSES (AMU)     **
 **                  INFRARED INTENSITIES (KM/MOL)                   **
 **                                                                  **
 **********************************************************************
 

 Mode:                 1                      2                      3
 Frequency:       843.48                1673.79                1673.95
 Force Cnst:      0.4907                 1.7611                 1.7614
 Red. Mass:       1.1705                 1.0669                 1.0669
 IR Active:          YES                    YES                    YES
 IR Intens:      438.282                101.645                101.679
 Raman Active:       YES                    YES                    YES
               X      Y      Z        X      Y      Z        X      Y      Z
 O         -0.077  0.019  0.067    0.035 -0.023  0.047   -0.023 -0.057 -0.011
 H          0.436  0.060 -0.369   -0.534  0.012 -0.518    0.008 -0.090  0.320
 H          0.486 -0.185 -0.244    0.127 -0.221 -0.090    0.400  0.615  0.231
 H          0.305 -0.170 -0.456   -0.150  0.574 -0.132   -0.040  0.385 -0.380
 TransDip   0.498 -0.120 -0.433   -0.181  0.118 -0.240    0.119  0.295  0.056

 Mode:                 4                      5                      6
 Frequency:      3580.91                3667.32                3668.84
 Force Cnst:      7.6910                 8.6307                 8.6378
 Red. Mass:       1.0180                 1.0892                 1.0892
 IR Active:          YES                    YES                    YES
 IR Intens:       30.935                472.941                472.656
 Raman Active:       YES                    YES                    YES
               X      Y      Z        X      Y      Z        X      Y      Z
 O          0.019 -0.004 -0.017   -0.047  0.006 -0.056   -0.014 -0.072  0.004
 H         -0.007  0.566  0.044    0.000 -0.026 -0.004   -0.039  0.815  0.088
 H          0.167 -0.278  0.484    0.179 -0.333  0.609   -0.095  0.174 -0.321
 H         -0.468 -0.227 -0.259    0.574  0.263  0.285    0.350  0.158  0.174
 TransDip  -0.133  0.023  0.116    0.448 -0.058  0.530    0.130  0.683 -0.036

 STANDARD THERMODYNAMIC QUANTITIES AT   298.15 K  AND     1.00 ATM

   This Molecule has  0 Imaginary Frequencies
   Zero point vibrational energy:       21.598 kcal/mol

   Atom    1 Element O  Has Mass   15.99491
   Atom    2 Element H  Has Mass    1.00783
   Atom    3 Element H  Has Mass    1.00783
   Atom    4 Element H  Has Mass    1.00783
   Molecular Mass:    19.018400 amu
   Principal axes and moments of inertia in amu*Bohr^2:
                             1           2           3
    Eigenvalues --        5.45179     5.45352     9.52081
          X               0.65524     0.14174     0.74200
          Y              -0.01088     0.98391    -0.17835
          Z               0.75534    -0.10879    -0.64624
   Rotational Symmetry Number is   1
   The Molecule is an Asymmetric Top
   Translational Enthalpy:        0.889 kcal/mol
   Rotational Enthalpy:           0.889 kcal/mol
   Vibrational Enthalpy:         21.643 kcal/mol
   gas constant (RT):             0.592 kcal/mol
   Translational Entropy:        34.770  cal/mol.K
   Rotational Entropy:           13.412  cal/mol.K
   Vibrational Entropy:           0.186  cal/mol.K

   Total Enthalpy:               24.013 kcal/mol
   Total Entropy:                48.369  cal/mol.K
Archival summary:
1\1\asimov.pl.ucsd.edu\FREQ\ProcedureUnspecified\BasisUnspecified\13(1+,1)\ckegan\MonDec1413:04:332020MonDec1413:04:332020\0\\#,FREQ,ProcedureUnspecified,BasisUnspecified,\\1,1\O\H,1,0.978677\H,1,0.978846,2,112.369\H,1,0.978846,2,112.372,3,127.923,0\\\@

 Total job time:  332.84s(wall), 924.19s(cpu) 
 Mon Dec 14 13:04:33 2020

        *************************************************************
        *                                                           *
        *  Thank you very much for using Q-Chem.  Have a nice day.  *
        *                                                           *
        *************************************************************


